s 1.000000000 _1_ AGT  --- 0 tcp 40 [0 0 0 0] ------- [1:0 4:0 32 0] [0 0] 0 0
r 1.000000000 _1_ RTR  --- 0 tcp 40 [0 0 0 0] ------- [1:0 4:0 32 0] [0 0] 0 0
s 1.000000000 _1_ RTR  --- 0 AODV 48 [0 0 0 0] ------- [1:255 -1:255 30 0] [0x2 1 1 [4 0] [1 4]] (REQUEST)
s 1.000115000 _1_ MAC  --- 0 AODV 106 [0 ffffffff 1 800] ------- [1:255 -1:255 30 0] [0x2 1 1 [4 0] [1 4]] (REQUEST)
r 1.000963703 _0_ MAC  --- 0 AODV 48 [0 ffffffff 1 800] ------- [1:255 -1:255 30 0] [0x2 1 1 [4 0] [1 4]] (REQUEST)
r 1.000988703 _0_ RTR  --- 0 AODV 48 [0 ffffffff 1 800] ------- [1:255 -1:255 30 0] [0x2 1 1 [4 0] [1 4]] (REQUEST)
s 1.001869930 _0_ RTR  --- 0 AODV 48 [0 ffffffff 1 800] ------- [0:255 -1:255 29 0] [0x2 2 1 [4 0] [1 4]] (REQUEST)
s 1.002264930 _0_ MAC  --- 0 AODV 106 [0 ffffffff 0 800] ------- [0:255 -1:255 29 0] [0x2 2 1 [4 0] [1 4]] (REQUEST)
r 1.003113633 _1_ MAC  --- 0 AODV 48 [0 ffffffff 0 800] ------- [0:255 -1:255 29 0] [0x2 2 1 [4 0] [1 4]] (REQUEST)
r 1.003113694 _2_ MAC  --- 0 AODV 48 [0 ffffffff 0 800] ------- [0:255 -1:255 29 0] [0x2 2 1 [4 0] [1 4]] (REQUEST)
r 1.003113733 _6_ MAC  --- 0 AODV 48 [0 ffffffff 0 800] ------- [0:255 -1:255 29 0] [0x2 2 1 [4 0] [1 4]] (REQUEST)
r 1.003138633 _1_ RTR  --- 0 AODV 48 [0 ffffffff 0 800] ------- [0:255 -1:255 29 0] [0x2 2 1 [4 0] [1 4]] (REQUEST)
r 1.003138694 _2_ RTR  --- 0 AODV 48 [0 ffffffff 0 800] ------- [0:255 -1:255 29 0] [0x2 2 1 [4 0] [1 4]] (REQUEST)
r 1.003138733 _6_ RTR  --- 0 AODV 48 [0 ffffffff 0 800] ------- [0:255 -1:255 29 0] [0x2 2 1 [4 0] [1 4]] (REQUEST)
s 1.006268312 _2_ RTR  --- 0 AODV 48 [0 ffffffff 0 800] ------- [2:255 -1:255 28 0] [0x2 3 1 [4 0] [1 4]] (REQUEST)
s 1.006583312 _2_ MAC  --- 0 AODV 106 [0 ffffffff 2 800] ------- [2:255 -1:255 28 0] [0x2 3 1 [4 0] [1 4]] (REQUEST)
r 1.007432076 _0_ MAC  --- 0 AODV 48 [0 ffffffff 2 800] ------- [2:255 -1:255 28 0] [0x2 3 1 [4 0] [1 4]] (REQUEST)
r 1.007457076 _0_ RTR  --- 0 AODV 48 [0 ffffffff 2 800] ------- [2:255 -1:255 28 0] [0x2 3 1 [4 0] [1 4]] (REQUEST)
s 1.011303494 _6_ RTR  --- 0 AODV 48 [0 ffffffff 0 800] ------- [6:255 -1:255 28 0] [0x2 3 1 [4 0] [1 4]] (REQUEST)
s 1.011638494 _6_ MAC  --- 0 AODV 106 [0 ffffffff 6 800] ------- [6:255 -1:255 28 0] [0x2 3 1 [4 0] [1 4]] (REQUEST)
r 1.012487223 _3_ MAC  --- 0 AODV 48 [0 ffffffff 6 800] ------- [6:255 -1:255 28 0] [0x2 3 1 [4 0] [1 4]] (REQUEST)
r 1.012487298 _0_ MAC  --- 0 AODV 48 [0 ffffffff 6 800] ------- [6:255 -1:255 28 0] [0x2 3 1 [4 0] [1 4]] (REQUEST)
r 1.012512223 _3_ RTR  --- 0 AODV 48 [0 ffffffff 6 800] ------- [6:255 -1:255 28 0] [0x2 3 1 [4 0] [1 4]] (REQUEST)
r 1.012512298 _0_ RTR  --- 0 AODV 48 [0 ffffffff 6 800] ------- [6:255 -1:255 28 0] [0x2 3 1 [4 0] [1 4]] (REQUEST)
s 1.014153678 _3_ RTR  --- 0 AODV 48 [0 ffffffff 6 800] ------- [3:255 -1:255 27 0] [0x2 4 1 [4 0] [1 4]] (REQUEST)
s 1.014768678 _3_ MAC  --- 0 AODV 106 [0 ffffffff 3 800] ------- [3:255 -1:255 27 0] [0x2 4 1 [4 0] [1 4]] (REQUEST)
r 1.015617208 _4_ MAC  --- 0 AODV 48 [0 ffffffff 3 800] ------- [3:255 -1:255 27 0] [0x2 4 1 [4 0] [1 4]] (REQUEST)
r 1.015617407 _6_ MAC  --- 0 AODV 48 [0 ffffffff 3 800] ------- [3:255 -1:255 27 0] [0x2 4 1 [4 0] [1 4]] (REQUEST)
r 1.015617435 _5_ MAC  --- 0 AODV 48 [0 ffffffff 3 800] ------- [3:255 -1:255 27 0] [0x2 4 1 [4 0] [1 4]] (REQUEST)
r 1.015642208 _4_ RTR  --- 0 AODV 48 [0 ffffffff 3 800] ------- [3:255 -1:255 27 0] [0x2 4 1 [4 0] [1 4]] (REQUEST)
s 1.015642208 _4_ RTR  --- 0 AODV 44 [0 0 0 0] ------- [4:255 1:255 30 3] [0x4 1 [4 4] 10.000000] (REPLY)
r 1.015642407 _6_ RTR  --- 0 AODV 48 [0 ffffffff 3 800] ------- [3:255 -1:255 27 0] [0x2 4 1 [4 0] [1 4]] (REQUEST)
r 1.015642435 _5_ RTR  --- 0 AODV 48 [0 ffffffff 3 800] ------- [3:255 -1:255 27 0] [0x2 4 1 [4 0] [1 4]] (REQUEST)
s 1.015937208 _4_ MAC  --- 0 ARP 86 [0 ffffffff 4 806] ------- [REQUEST 4/4 0/3]
r 1.016625739 _3_ MAC  --- 0 ARP 28 [0 ffffffff 4 806] ------- [REQUEST 4/4 0/3]
s 1.016780518 _5_ RTR  --- 0 AODV 48 [0 ffffffff 3 800] ------- [5:255 -1:255 26 0] [0x2 5 1 [4 0] [1 4]] (REQUEST)
s 1.017160739 _3_ MAC  --- 0 RTS 44 [52e 4 3 0] 
r 1.017513269 _4_ MAC  --- 0 RTS 44 [52e 4 3 0] 
s 1.017523269 _4_ MAC  --- 0 CTS 38 [3f4 3 0 0] 
r 1.017827800 _3_ MAC  --- 0 CTS 38 [3f4 3 0 0] 
s 1.017837800 _3_ MAC  --- 0 ARP 86 [13a 4 3 806] ------- [REPLY 3/3 4/4]
r 1.018526330 _4_ MAC  --- 0 ARP 28 [13a 4 3 806] ------- [REPLY 3/3 4/4]
s 1.018536330 _4_ MAC  --- 0 ACK 38 [0 3 0 0] 
r 1.018840861 _3_ MAC  --- 0 ACK 38 [0 3 0 0] 
s 1.019210330 _4_ MAC  --- 0 RTS 44 [5ae 3 4 0] 
r 1.019562861 _3_ MAC  --- 0 RTS 44 [5ae 3 4 0] 
s 1.019572861 _3_ MAC  --- 0 CTS 38 [474 4 0 0] 
r 1.019877391 _4_ MAC  --- 0 CTS 38 [474 4 0 0] 
s 1.019887391 _4_ MAC  --- 0 AODV 102 [13a 3 4 800] ------- [4:255 1:255 30 3] [0x4 1 [4 4] 10.000000] (REPLY)
r 1.020703922 _3_ MAC  --- 0 AODV 44 [13a 3 4 800] ------- [4:255 1:255 30 3] [0x4 1 [4 4] 10.000000] (REPLY)
s 1.020713922 _3_ MAC  --- 0 ACK 38 [0 4 0 0] 
r 1.020728922 _3_ RTR  --- 0 AODV 44 [13a 3 4 800] ------- [4:255 1:255 30 3] [0x4 1 [4 4] 10.000000] (REPLY)
f 1.020728922 _3_ RTR  --- 0 AODV 44 [13a 3 4 800] ------- [4:255 1:255 29 6] [0x4 2 [4 4] 10.000000] (REPLY)
r 1.021018452 _4_ MAC  --- 0 ACK 38 [0 4 0 0] 
s 1.021287922 _3_ MAC  --- 0 ARP 86 [0 ffffffff 3 806] ------- [REQUEST 3/3 0/6]
r 1.021976452 _4_ MAC  --- 0 ARP 28 [0 ffffffff 3 806] ------- [REQUEST 3/3 0/6]
r 1.021976651 _6_ MAC  --- 0 ARP 28 [0 ffffffff 3 806] ------- [REQUEST 3/3 0/6]
r 1.021976679 _5_ MAC  --- 0 ARP 28 [0 ffffffff 3 806] ------- [REQUEST 3/3 0/6]
s 1.022086679 _5_ MAC  --- 0 AODV 106 [0 ffffffff 5 800] ------- [5:255 -1:255 26 0] [0x2 5 1 [4 0] [1 4]] (REQUEST)
r 1.022935437 _3_ MAC  --- 0 AODV 48 [0 ffffffff 5 800] ------- [5:255 -1:255 26 0] [0x2 5 1 [4 0] [1 4]] (REQUEST)
r 1.022960437 _3_ RTR  --- 0 AODV 48 [0 ffffffff 5 800] ------- [5:255 -1:255 26 0] [0x2 5 1 [4 0] [1 4]] (REQUEST)
s 1.023750144 _6_ MAC  --- 0 RTS 44 [52e 3 6 0] 
r 1.024102874 _3_ MAC  --- 0 RTS 44 [52e 3 6 0] 
s 1.024112874 _3_ MAC  --- 0 CTS 38 [3f4 6 0 0] 
r 1.024417603 _6_ MAC  --- 0 CTS 38 [3f4 6 0 0] 
s 1.024427603 _6_ MAC  --- 0 ARP 86 [13a 3 6 806] ------- [REPLY 6/6 3/3]
r 1.025116332 _3_ MAC  --- 0 ARP 28 [13a 3 6 806] ------- [REPLY 6/6 3/3]
s 1.025126332 _3_ MAC  --- 0 ACK 38 [0 6 0 0] 
r 1.025431062 _6_ MAC  --- 0 ACK 38 [0 6 0 0] 
s 1.026060332 _3_ MAC  --- 0 RTS 44 [5ae 6 3 0] 
r 1.026413062 _6_ MAC  --- 0 RTS 44 [5ae 6 3 0] 
s 1.026423062 _6_ MAC  --- 0 CTS 38 [474 3 0 0] 
r 1.026727791 _3_ MAC  --- 0 CTS 38 [474 3 0 0] 
s 1.026737791 _3_ MAC  --- 0 AODV 102 [13a 6 3 800] ------- [4:255 1:255 29 6] [0x4 2 [4 4] 10.000000] (REPLY)
r 1.027554521 _6_ MAC  --- 0 AODV 44 [13a 6 3 800] ------- [4:255 1:255 29 6] [0x4 2 [4 4] 10.000000] (REPLY)
s 1.027564521 _6_ MAC  --- 0 ACK 38 [0 3 0 0] 
r 1.027579521 _6_ RTR  --- 0 AODV 44 [13a 6 3 800] ------- [4:255 1:255 29 6] [0x4 2 [4 4] 10.000000] (REPLY)
f 1.027579521 _6_ RTR  --- 0 AODV 44 [13a 6 3 800] ------- [4:255 1:255 28 0] [0x4 3 [4 4] 10.000000] (REPLY)
r 1.027869250 _3_ MAC  --- 0 ACK 38 [0 3 0 0] 
s 1.028458521 _6_ MAC  --- 0 ARP 86 [0 ffffffff 6 806] ------- [REQUEST 6/6 0/0]
r 1.029147250 _3_ MAC  --- 0 ARP 28 [0 ffffffff 6 806] ------- [REQUEST 6/6 0/0]
r 1.029147324 _0_ MAC  --- 0 ARP 28 [0 ffffffff 6 806] ------- [REQUEST 6/6 0/0]
s 1.029502324 _0_ MAC  --- 0 RTS 44 [52e 6 0 0] 
r 1.029855128 _6_ MAC  --- 0 RTS 44 [52e 6 0 0] 
s 1.029865128 _6_ MAC  --- 0 CTS 38 [3f4 0 0 0] 
r 1.030169932 _0_ MAC  --- 0 CTS 38 [3f4 0 0 0] 
s 1.030179932 _0_ MAC  --- 0 ARP 86 [13a 6 0 806] ------- [REPLY 0/0 6/6]
r 1.030868735 _6_ MAC  --- 0 ARP 28 [13a 6 0 806] ------- [REPLY 0/0 6/6]
s 1.030878735 _6_ MAC  --- 0 ACK 38 [0 0 0 0] 
r 1.031183539 _0_ MAC  --- 0 ACK 38 [0 0 0 0] 
s 1.031592735 _6_ MAC  --- 0 RTS 44 [5ae 0 6 0] 
r 1.031945539 _0_ MAC  --- 0 RTS 44 [5ae 0 6 0] 
s 1.031955539 _0_ MAC  --- 0 CTS 38 [474 6 0 0] 
r 1.032260342 _6_ MAC  --- 0 CTS 38 [474 6 0 0] 
s 1.032270342 _6_ MAC  --- 0 AODV 102 [13a 0 6 800] ------- [4:255 1:255 28 0] [0x4 3 [4 4] 10.000000] (REPLY)
r 1.033087146 _0_ MAC  --- 0 AODV 44 [13a 0 6 800] ------- [4:255 1:255 28 0] [0x4 3 [4 4] 10.000000] (REPLY)
s 1.033097146 _0_ MAC  --- 0 ACK 38 [0 6 0 0] 
r 1.033112146 _0_ RTR  --- 0 AODV 44 [13a 0 6 800] ------- [4:255 1:255 28 0] [0x4 3 [4 4] 10.000000] (REPLY)
f 1.033112146 _0_ RTR  --- 0 AODV 44 [13a 0 6 800] ------- [4:255 1:255 27 1] [0x4 4 [4 4] 10.000000] (REPLY)
r 1.033401950 _6_ MAC  --- 0 ACK 38 [0 6 0 0] 
s 1.033531146 _0_ MAC  --- 0 ARP 86 [0 ffffffff 0 806] ------- [REQUEST 0/0 0/1]
r 1.034219849 _1_ MAC  --- 0 ARP 28 [0 ffffffff 0 806] ------- [REQUEST 0/0 0/1]
r 1.034219910 _2_ MAC  --- 0 ARP 28 [0 ffffffff 0 806] ------- [REQUEST 0/0 0/1]
r 1.034219950 _6_ MAC  --- 0 ARP 28 [0 ffffffff 0 806] ------- [REQUEST 0/0 0/1]
s 1.034374849 _1_ MAC  --- 0 RTS 44 [52e 0 1 0] 
r 1.034727552 _0_ MAC  --- 0 RTS 44 [52e 0 1 0] 
s 1.034737552 _0_ MAC  --- 0 CTS 38 [3f4 1 0 0] 
r 1.035042256 _1_ MAC  --- 0 CTS 38 [3f4 1 0 0] 
s 1.035052256 _1_ MAC  --- 0 ARP 86 [13a 0 1 806] ------- [REPLY 1/1 0/0]
r 1.035740959 _0_ MAC  --- 0 ARP 28 [13a 0 1 806] ------- [REPLY 1/1 0/0]
s 1.035750959 _0_ MAC  --- 0 ACK 38 [0 1 0 0] 
r 1.036055662 _1_ MAC  --- 0 ACK 38 [0 1 0 0] 
s 1.036204959 _0_ MAC  --- 0 RTS 44 [5ae 1 0 0] 
r 1.036557662 _1_ MAC  --- 0 RTS 44 [5ae 1 0 0] 
s 1.036567662 _1_ MAC  --- 0 CTS 38 [474 0 0 0] 
r 1.036872365 _0_ MAC  --- 0 CTS 38 [474 0 0 0] 
s 1.036882365 _0_ MAC  --- 0 AODV 102 [13a 1 0 800] ------- [4:255 1:255 27 1] [0x4 4 [4 4] 10.000000] (REPLY)
r 1.037699068 _1_ MAC  --- 0 AODV 44 [13a 1 0 800] ------- [4:255 1:255 27 1] [0x4 4 [4 4] 10.000000] (REPLY)
s 1.037709068 _1_ MAC  --- 0 ACK 38 [0 0 0 0] 
r 1.037724068 _1_ RTR  --- 0 AODV 44 [13a 1 0 800] ------- [4:255 1:255 27 1] [0x4 4 [4 4] 10.000000] (REPLY)
s 1.037724068 _1_ RTR  --- 0 tcp 40 [0 0 0 0] ------- [1:0 4:0 30 0] [0 0] 0 0
r 1.038013771 _0_ MAC  --- 0 ACK 38 [0 0 0 0] 
s 1.038503068 _1_ MAC  --- 0 RTS 44 [58e 0 1 0] 
r 1.038855771 _0_ MAC  --- 0 RTS 44 [58e 0 1 0] 
s 1.038865771 _0_ MAC  --- 0 CTS 38 [454 1 0 0] 
r 1.039170475 _1_ MAC  --- 0 CTS 38 [454 1 0 0] 
s 1.039180475 _1_ MAC  --- 0 tcp 98 [13a 0 1 800] ------- [1:0 4:0 30 0] [0 0] 0 0
r 1.039965178 _0_ MAC  --- 0 tcp 40 [13a 0 1 800] ------- [1:0 4:0 30 0] [0 0] 1 0
s 1.039975178 _0_ MAC  --- 0 ACK 38 [0 1 0 0] 
r 1.039990178 _0_ RTR  --- 0 tcp 40 [13a 0 1 800] ------- [1:0 4:0 30 0] [0 0] 1 0
f 1.039990178 _0_ RTR  --- 0 tcp 40 [13a 0 1 800] ------- [1:0 4:0 29 6] [0 0] 1 0
r 1.040279881 _1_ MAC  --- 0 ACK 38 [0 1 0 0] 
s 1.040529178 _0_ MAC  --- 0 RTS 44 [58e 6 0 0] 
r 1.040881981 _6_ MAC  --- 0 RTS 44 [58e 6 0 0] 
s 1.040891981 _6_ MAC  --- 0 CTS 38 [454 0 0 0] 
r 1.041196785 _0_ MAC  --- 0 CTS 38 [454 0 0 0] 
s 1.041206785 _0_ MAC  --- 0 tcp 98 [13a 6 0 800] ------- [1:0 4:0 29 6] [0 0] 1 0
r 1.041991589 _6_ MAC  --- 0 tcp 40 [13a 6 0 800] ------- [1:0 4:0 29 6] [0 0] 2 0
s 1.042001589 _6_ MAC  --- 0 ACK 38 [0 0 0 0] 
r 1.042016589 _6_ RTR  --- 0 tcp 40 [13a 6 0 800] ------- [1:0 4:0 29 6] [0 0] 2 0
f 1.042016589 _6_ RTR  --- 0 tcp 40 [13a 6 0 800] ------- [1:0 4:0 28 3] [0 0] 2 0
r 1.042306392 _0_ MAC  --- 0 ACK 38 [0 0 0 0] 
s 1.042415589 _6_ MAC  --- 0 RTS 44 [58e 3 6 0] 
r 1.042768318 _3_ MAC  --- 0 RTS 44 [58e 3 6 0] 
s 1.042778318 _3_ MAC  --- 0 CTS 38 [454 6 0 0] 
r 1.043083047 _6_ MAC  --- 0 CTS 38 [454 6 0 0] 
s 1.043093047 _6_ MAC  --- 0 tcp 98 [13a 3 6 800] ------- [1:0 4:0 28 3] [0 0] 2 0
r 1.043877777 _3_ MAC  --- 0 tcp 40 [13a 3 6 800] ------- [1:0 4:0 28 3] [0 0] 3 0
s 1.043887777 _3_ MAC  --- 0 ACK 38 [0 6 0 0] 
r 1.043902777 _3_ RTR  --- 0 tcp 40 [13a 3 6 800] ------- [1:0 4:0 28 3] [0 0] 3 0
f 1.043902777 _3_ RTR  --- 0 tcp 40 [13a 3 6 800] ------- [1:0 4:0 27 4] [0 0] 3 0
r 1.044192506 _6_ MAC  --- 0 ACK 38 [0 6 0 0] 
s 1.044581777 _3_ MAC  --- 0 RTS 44 [58e 4 3 0] 
r 1.044934307 _4_ MAC  --- 0 RTS 44 [58e 4 3 0] 
s 1.044944307 _4_ MAC  --- 0 CTS 38 [454 3 0 0] 
r 1.045248838 _3_ MAC  --- 0 CTS 38 [454 3 0 0] 
s 1.045258838 _3_ MAC  --- 0 tcp 98 [13a 4 3 800] ------- [1:0 4:0 27 4] [0 0] 3 0
r 1.046043368 _4_ MAC  --- 0 tcp 40 [13a 4 3 800] ------- [1:0 4:0 27 4] [0 0] 4 0
s 1.046053368 _4_ MAC  --- 0 ACK 38 [0 3 0 0] 
r 1.046068368 _4_ AGT  --- 0 tcp 40 [13a 4 3 800] ------- [1:0 4:0 27 4] [0 0] 4 0
s 1.046068368 _4_ AGT  --- 1 ack 40 [0 0 0 0] ------- [4:0 1:0 32 0] [0 0] 0 0
r 1.046068368 _4_ RTR  --- 1 ack 40 [0 0 0 0] ------- [4:0 1:0 32 0] [0 0] 0 0
s 1.046068368 _4_ RTR  --- 1 ack 40 [0 0 0 0] ------- [4:0 1:0 30 3] [0 0] 0 0
r 1.046357899 _3_ MAC  --- 0 ACK 38 [0 3 0 0] 
s 1.046687368 _4_ MAC  --- 0 RTS 44 [58e 3 4 0] 
r 1.047039899 _3_ MAC  --- 0 RTS 44 [58e 3 4 0] 
s 1.047049899 _3_ MAC  --- 0 CTS 38 [454 4 0 0] 
r 1.047354429 _4_ MAC  --- 0 CTS 38 [454 4 0 0] 
s 1.047364429 _4_ MAC  --- 1 ack 98 [13a 3 4 800] ------- [4:0 1:0 30 3] [0 0] 0 0
r 1.048148960 _3_ MAC  --- 1 ack 40 [13a 3 4 800] ------- [4:0 1:0 30 3] [0 0] 1 0
s 1.048158960 _3_ MAC  --- 0 ACK 38 [0 4 0 0] 
r 1.048173960 _3_ RTR  --- 1 ack 40 [13a 3 4 800] ------- [4:0 1:0 30 3] [0 0] 1 0
f 1.048173960 _3_ RTR  --- 1 ack 40 [13a 3 4 800] ------- [4:0 1:0 29 6] [0 0] 1 0
r 1.048463490 _4_ MAC  --- 0 ACK 38 [0 4 0 0] 
s 1.048792960 _3_ MAC  --- 0 RTS 44 [58e 6 3 0] 
r 1.049145689 _6_ MAC  --- 0 RTS 44 [58e 6 3 0] 
s 1.049155689 _6_ MAC  --- 0 CTS 38 [454 3 0 0] 
r 1.049460419 _3_ MAC  --- 0 CTS 38 [454 3 0 0] 
s 1.049470419 _3_ MAC  --- 1 ack 98 [13a 6 3 800] ------- [4:0 1:0 29 6] [0 0] 1 0
r 1.050255148 _6_ MAC  --- 1 ack 40 [13a 6 3 800] ------- [4:0 1:0 29 6] [0 0] 2 0
s 1.050265148 _6_ MAC  --- 0 ACK 38 [0 3 0 0] 
r 1.050280148 _6_ RTR  --- 1 ack 40 [13a 6 3 800] ------- [4:0 1:0 29 6] [0 0] 2 0
f 1.050280148 _6_ RTR  --- 1 ack 40 [13a 6 3 800] ------- [4:0 1:0 28 0] [0 0] 2 0
r 1.050569878 _3_ MAC  --- 0 ACK 38 [0 3 0 0] 
s 1.050619148 _6_ MAC  --- 0 RTS 44 [58e 0 6 0] 
r 1.050971952 _0_ MAC  --- 0 RTS 44 [58e 0 6 0] 
s 1.050981952 _0_ MAC  --- 0 CTS 38 [454 6 0 0] 
r 1.051286756 _6_ MAC  --- 0 CTS 38 [454 6 0 0] 
s 1.051296756 _6_ MAC  --- 1 ack 98 [13a 0 6 800] ------- [4:0 1:0 28 0] [0 0] 2 0
r 1.052081559 _0_ MAC  --- 1 ack 40 [13a 0 6 800] ------- [4:0 1:0 28 0] [0 0] 3 0
s 1.052091559 _0_ MAC  --- 0 ACK 38 [0 6 0 0] 
r 1.052106559 _0_ RTR  --- 1 ack 40 [13a 0 6 800] ------- [4:0 1:0 28 0] [0 0] 3 0
f 1.052106559 _0_ RTR  --- 1 ack 40 [13a 0 6 800] ------- [4:0 1:0 27 1] [0 0] 3 0
r 1.052396363 _6_ MAC  --- 0 ACK 38 [0 6 0 0] 
s 1.052525559 _0_ MAC  --- 0 RTS 44 [58e 1 0 0] 
r 1.052878262 _1_ MAC  --- 0 RTS 44 [58e 1 0 0] 
s 1.052888262 _1_ MAC  --- 0 CTS 38 [454 0 0 0] 
r 1.053192965 _0_ MAC  --- 0 CTS 38 [454 0 0 0] 
s 1.053202965 _0_ MAC  --- 1 ack 98 [13a 1 0 800] ------- [4:0 1:0 27 1] [0 0] 3 0
r 1.053987669 _1_ MAC  --- 1 ack 40 [13a 1 0 800] ------- [4:0 1:0 27 1] [0 0] 4 0
s 1.053997669 _1_ MAC  --- 0 ACK 38 [0 0 0 0] 
r 1.054012669 _1_ AGT  --- 1 ack 40 [13a 1 0 800] ------- [4:0 1:0 27 1] [0 0] 4 0
s 1.054012669 _1_ AGT  --- 2 tcp 1540 [0 0 0 0] ------- [1:0 4:0 32 0] [1 0] 0 0
r 1.054012669 _1_ RTR  --- 2 tcp 1540 [0 0 0 0] ------- [1:0 4:0 32 0] [1 0] 0 0
s 1.054012669 _1_ AGT  --- 3 tcp 1540 [0 0 0 0] ------- [1:0 4:0 32 0] [2 0] 0 0
r 1.054012669 _1_ RTR  --- 3 tcp 1540 [0 0 0 0] ------- [1:0 4:0 32 0] [2 0] 0 0
s 1.054012669 _1_ RTR  --- 2 tcp 1540 [0 0 0 0] ------- [1:0 4:0 30 0] [1 0] 0 0
s 1.054012669 _1_ RTR  --- 3 tcp 1540 [0 0 0 0] ------- [1:0 4:0 30 0] [2 0] 0 0
r 1.054302372 _0_ MAC  --- 0 ACK 38 [0 0 0 0] 
s 1.054731669 _1_ MAC  --- 0 RTS 44 [346e 0 1 0] 
r 1.055084372 _0_ MAC  --- 0 RTS 44 [346e 0 1 0] 
s 1.055094372 _0_ MAC  --- 0 CTS 38 [3334 1 0 0] 
r 1.055399075 _1_ MAC  --- 0 CTS 38 [3334 1 0 0] 
s 1.055409075 _1_ MAC  --- 2 tcp 1598 [13a 0 1 800] ------- [1:0 4:0 30 0] [1 0] 0 0
r 1.068193778 _0_ MAC  --- 2 tcp 1540 [13a 0 1 800] ------- [1:0 4:0 30 0] [1 0] 1 0
s 1.068203778 _0_ MAC  --- 0 ACK 38 [0 1 0 0] 
r 1.068218778 _0_ RTR  --- 2 tcp 1540 [13a 0 1 800] ------- [1:0 4:0 30 0] [1 0] 1 0
f 1.068218778 _0_ RTR  --- 2 tcp 1540 [13a 0 1 800] ------- [1:0 4:0 29 6] [1 0] 1 0
r 1.068508481 _1_ MAC  --- 0 ACK 38 [0 1 0 0] 
s 1.068638481 _1_ MAC  --- 0 RTS 44 [346e 0 1 0] 
r 1.068991184 _0_ MAC  --- 0 RTS 44 [346e 0 1 0] 
s 1.069001184 _0_ MAC  --- 0 CTS 38 [3334 1 0 0] 
r 1.069305888 _1_ MAC  --- 0 CTS 38 [3334 1 0 0] 
s 1.069315888 _1_ MAC  --- 3 tcp 1598 [13a 0 1 800] ------- [1:0 4:0 30 0] [2 0] 0 0
r 1.082100591 _0_ MAC  --- 3 tcp 1540 [13a 0 1 800] ------- [1:0 4:0 30 0] [2 0] 1 0
s 1.082110591 _0_ MAC  --- 0 ACK 38 [0 1 0 0] 
r 1.082125591 _0_ RTR  --- 3 tcp 1540 [13a 0 1 800] ------- [1:0 4:0 30 0] [2 0] 1 0
f 1.082125591 _0_ RTR  --- 3 tcp 1540 [13a 0 1 800] ------- [1:0 4:0 29 6] [2 0] 1 0
r 1.082415294 _1_ MAC  --- 0 ACK 38 [0 1 0 0] 
s 1.082604591 _0_ MAC  --- 0 RTS 44 [346e 6 0 0] 
r 1.082957394 _6_ MAC  --- 0 RTS 44 [346e 6 0 0] 
s 1.082967394 _6_ MAC  --- 0 CTS 38 [3334 0 0 0] 
r 1.083272198 _0_ MAC  --- 0 CTS 38 [3334 0 0 0] 
s 1.083282198 _0_ MAC  --- 2 tcp 1598 [13a 6 0 800] ------- [1:0 4:0 29 6] [1 0] 1 0
r 1.096067002 _6_ MAC  --- 2 tcp 1540 [13a 6 0 800] ------- [1:0 4:0 29 6] [1 0] 2 0
s 1.096077002 _6_ MAC  --- 0 ACK 38 [0 0 0 0] 
r 1.096092002 _6_ RTR  --- 2 tcp 1540 [13a 6 0 800] ------- [1:0 4:0 29 6] [1 0] 2 0
f 1.096092002 _6_ RTR  --- 2 tcp 1540 [13a 6 0 800] ------- [1:0 4:0 28 3] [1 0] 2 0
r 1.096381805 _0_ MAC  --- 0 ACK 38 [0 0 0 0] 
s 1.096431805 _0_ MAC  --- 0 RTS 44 [346e 6 0 0] 
r 1.096784609 _6_ MAC  --- 0 RTS 44 [346e 6 0 0] 
s 1.096794609 _6_ MAC  --- 0 CTS 38 [3334 0 0 0] 
r 1.097099412 _0_ MAC  --- 0 CTS 38 [3334 0 0 0] 
s 1.097109412 _0_ MAC  --- 3 tcp 1598 [13a 6 0 800] ------- [1:0 4:0 29 6] [2 0] 1 0
r 1.109894216 _6_ MAC  --- 3 tcp 1540 [13a 6 0 800] ------- [1:0 4:0 29 6] [2 0] 2 0
s 1.109904216 _6_ MAC  --- 0 ACK 38 [0 0 0 0] 
r 1.109919216 _6_ RTR  --- 3 tcp 1540 [13a 6 0 800] ------- [1:0 4:0 29 6] [2 0] 2 0
f 1.109919216 _6_ RTR  --- 3 tcp 1540 [13a 6 0 800] ------- [1:0 4:0 28 3] [2 0] 2 0
r 1.110209020 _0_ MAC  --- 0 ACK 38 [0 0 0 0] 
s 1.110418216 _6_ MAC  --- 0 RTS 44 [346e 3 6 0] 
r 1.110770945 _3_ MAC  --- 0 RTS 44 [346e 3 6 0] 
s 1.110780945 _3_ MAC  --- 0 CTS 38 [3334 6 0 0] 
r 1.111085675 _6_ MAC  --- 0 CTS 38 [3334 6 0 0] 
s 1.111095675 _6_ MAC  --- 2 tcp 1598 [13a 3 6 800] ------- [1:0 4:0 28 3] [1 0] 2 0
r 1.123880404 _3_ MAC  --- 2 tcp 1540 [13a 3 6 800] ------- [1:0 4:0 28 3] [1 0] 3 0
s 1.123890404 _3_ MAC  --- 0 ACK 38 [0 6 0 0] 
r 1.123905404 _3_ RTR  --- 2 tcp 1540 [13a 3 6 800] ------- [1:0 4:0 28 3] [1 0] 3 0
f 1.123905404 _3_ RTR  --- 2 tcp 1540 [13a 3 6 800] ------- [1:0 4:0 27 4] [1 0] 3 0
r 1.124195134 _6_ MAC  --- 0 ACK 38 [0 6 0 0] 
s 1.124364404 _3_ MAC  --- 0 RTS 44 [346e 4 3 0] 
r 1.124716935 _4_ MAC  --- 0 RTS 44 [346e 4 3 0] 
s 1.124726935 _4_ MAC  --- 0 CTS 38 [3334 3 0 0] 
r 1.125031465 _3_ MAC  --- 0 CTS 38 [3334 3 0 0] 
s 1.125041465 _3_ MAC  --- 2 tcp 1598 [13a 4 3 800] ------- [1:0 4:0 27 4] [1 0] 3 0
r 1.137825996 _4_ MAC  --- 2 tcp 1540 [13a 4 3 800] ------- [1:0 4:0 27 4] [1 0] 4 0
s 1.137835996 _4_ MAC  --- 0 ACK 38 [0 3 0 0] 
r 1.137850996 _4_ AGT  --- 2 tcp 1540 [13a 4 3 800] ------- [1:0 4:0 27 4] [1 0] 4 0
s 1.137850996 _4_ AGT  --- 4 ack 40 [0 0 0 0] ------- [4:0 1:0 32 0] [1 0] 0 0
r 1.137850996 _4_ RTR  --- 4 ack 40 [0 0 0 0] ------- [4:0 1:0 32 0] [1 0] 0 0
s 1.137850996 _4_ RTR  --- 4 ack 40 [0 0 0 0] ------- [4:0 1:0 30 3] [1 0] 0 0
r 1.138140526 _3_ MAC  --- 0 ACK 38 [0 3 0 0] 
s 1.138349996 _4_ MAC  --- 0 RTS 44 [58e 3 4 0] 
r 1.138702526 _3_ MAC  --- 0 RTS 44 [58e 3 4 0] 
s 1.138712526 _3_ MAC  --- 0 CTS 38 [454 4 0 0] 
r 1.139017057 _4_ MAC  --- 0 CTS 38 [454 4 0 0] 
s 1.139027057 _4_ MAC  --- 4 ack 98 [13a 3 4 800] ------- [4:0 1:0 30 3] [1 0] 0 0
r 1.139811587 _3_ MAC  --- 4 ack 40 [13a 3 4 800] ------- [4:0 1:0 30 3] [1 0] 1 0
s 1.139821587 _3_ MAC  --- 0 ACK 38 [0 4 0 0] 
r 1.139836587 _3_ RTR  --- 4 ack 40 [13a 3 4 800] ------- [4:0 1:0 30 3] [1 0] 1 0
f 1.139836587 _3_ RTR  --- 4 ack 40 [13a 3 4 800] ------- [4:0 1:0 29 6] [1 0] 1 0
r 1.140126118 _4_ MAC  --- 0 ACK 38 [0 4 0 0] 
s 1.140315587 _3_ MAC  --- 0 RTS 44 [58e 6 3 0] 
r 1.140668317 _6_ MAC  --- 0 RTS 44 [58e 6 3 0] 
s 1.140678317 _6_ MAC  --- 0 CTS 38 [454 3 0 0] 
r 1.140983046 _3_ MAC  --- 0 CTS 38 [454 3 0 0] 
s 1.140993046 _3_ MAC  --- 4 ack 98 [13a 6 3 800] ------- [4:0 1:0 29 6] [1 0] 1 0
r 1.141777776 _6_ MAC  --- 4 ack 40 [13a 6 3 800] ------- [4:0 1:0 29 6] [1 0] 2 0
s 1.141787776 _6_ MAC  --- 0 ACK 38 [0 3 0 0] 
r 1.141802776 _6_ RTR  --- 4 ack 40 [13a 6 3 800] ------- [4:0 1:0 29 6] [1 0] 2 0
f 1.141802776 _6_ RTR  --- 4 ack 40 [13a 6 3 800] ------- [4:0 1:0 28 0] [1 0] 2 0
r 1.142092505 _3_ MAC  --- 0 ACK 38 [0 3 0 0] 
s 1.142261776 _6_ MAC  --- 0 RTS 44 [346e 3 6 0] 
r 1.142614505 _3_ MAC  --- 0 RTS 44 [346e 3 6 0] 
s 1.142624505 _3_ MAC  --- 0 CTS 38 [3334 6 0 0] 
r 1.142929235 _6_ MAC  --- 0 CTS 38 [3334 6 0 0] 
s 1.142939235 _6_ MAC  --- 3 tcp 1598 [13a 3 6 800] ------- [1:0 4:0 28 3] [2 0] 2 0
r 1.155723964 _3_ MAC  --- 3 tcp 1540 [13a 3 6 800] ------- [1:0 4:0 28 3] [2 0] 3 0
s 1.155733964 _3_ MAC  --- 0 ACK 38 [0 6 0 0] 
r 1.155748964 _3_ RTR  --- 3 tcp 1540 [13a 3 6 800] ------- [1:0 4:0 28 3] [2 0] 3 0
f 1.155748964 _3_ RTR  --- 3 tcp 1540 [13a 3 6 800] ------- [1:0 4:0 27 4] [2 0] 3 0
r 1.156038694 _6_ MAC  --- 0 ACK 38 [0 6 0 0] 
s 1.156328694 _6_ MAC  --- 0 RTS 44 [58e 0 6 0] 
r 1.156681497 _0_ MAC  --- 0 RTS 44 [58e 0 6 0] 
s 1.156691497 _0_ MAC  --- 0 CTS 38 [454 6 0 0] 
r 1.156996301 _6_ MAC  --- 0 CTS 38 [454 6 0 0] 
s 1.157006301 _6_ MAC  --- 4 ack 98 [13a 0 6 800] ------- [4:0 1:0 28 0] [1 0] 2 0
r 1.157791104 _0_ MAC  --- 4 ack 40 [13a 0 6 800] ------- [4:0 1:0 28 0] [1 0] 3 0
s 1.157801104 _0_ MAC  --- 0 ACK 38 [0 6 0 0] 
r 1.157816104 _0_ RTR  --- 4 ack 40 [13a 0 6 800] ------- [4:0 1:0 28 0] [1 0] 3 0
f 1.157816104 _0_ RTR  --- 4 ack 40 [13a 0 6 800] ------- [4:0 1:0 27 1] [1 0] 3 0
r 1.158105908 _6_ MAC  --- 0 ACK 38 [0 6 0 0] 
s 1.158195104 _0_ MAC  --- 0 RTS 44 [58e 1 0 0] 
r 1.158547808 _1_ MAC  --- 0 RTS 44 [58e 1 0 0] 
s 1.158557808 _1_ MAC  --- 0 CTS 38 [454 0 0 0] 
r 1.158862511 _0_ MAC  --- 0 CTS 38 [454 0 0 0] 
s 1.158872511 _0_ MAC  --- 4 ack 98 [13a 1 0 800] ------- [4:0 1:0 27 1] [1 0] 3 0
r 1.159657214 _1_ MAC  --- 4 ack 40 [13a 1 0 800] ------- [4:0 1:0 27 1] [1 0] 4 0
s 1.159667214 _1_ MAC  --- 0 ACK 38 [0 0 0 0] 
r 1.159682214 _1_ AGT  --- 4 ack 40 [13a 1 0 800] ------- [4:0 1:0 27 1] [1 0] 4 0
s 1.159682214 _1_ AGT  --- 5 tcp 1540 [0 0 0 0] ------- [1:0 4:0 32 0] [3 0] 0 0
r 1.159682214 _1_ RTR  --- 5 tcp 1540 [0 0 0 0] ------- [1:0 4:0 32 0] [3 0] 0 0
s 1.159682214 _1_ AGT  --- 6 tcp 1540 [0 0 0 0] ------- [1:0 4:0 32 0] [4 0] 0 0
r 1.159682214 _1_ RTR  --- 6 tcp 1540 [0 0 0 0] ------- [1:0 4:0 32 0] [4 0] 0 0
s 1.159682214 _1_ RTR  --- 5 tcp 1540 [0 0 0 0] ------- [1:0 4:0 30 0] [3 0] 0 0
s 1.159682214 _1_ RTR  --- 6 tcp 1540 [0 0 0 0] ------- [1:0 4:0 30 0] [4 0] 0 0
r 1.159971917 _0_ MAC  --- 0 ACK 38 [0 0 0 0] 
s 1.160201214 _1_ MAC  --- 0 RTS 44 [346e 0 1 0] 
r 1.160553917 _0_ MAC  --- 0 RTS 44 [346e 0 1 0] 
s 1.160563917 _0_ MAC  --- 0 CTS 38 [3334 1 0 0] 
r 1.160868620 _1_ MAC  --- 0 CTS 38 [3334 1 0 0] 
s 1.160878620 _1_ MAC  --- 5 tcp 1598 [13a 0 1 800] ------- [1:0 4:0 30 0] [3 0] 0 0
r 1.173663323 _0_ MAC  --- 5 tcp 1540 [13a 0 1 800] ------- [1:0 4:0 30 0] [3 0] 1 0
s 1.173673323 _0_ MAC  --- 0 ACK 38 [0 1 0 0] 
r 1.173688323 _0_ RTR  --- 5 tcp 1540 [13a 0 1 800] ------- [1:0 4:0 30 0] [3 0] 1 0
f 1.173688323 _0_ RTR  --- 5 tcp 1540 [13a 0 1 800] ------- [1:0 4:0 29 6] [3 0] 1 0
r 1.173978027 _1_ MAC  --- 0 ACK 38 [0 1 0 0] 
s 1.174068027 _1_ MAC  --- 0 RTS 44 [346e 0 1 0] 
r 1.174420730 _0_ MAC  --- 0 RTS 44 [346e 0 1 0] 
s 1.174430730 _0_ MAC  --- 0 CTS 38 [3334 1 0 0] 
r 1.174735433 _1_ MAC  --- 0 CTS 38 [3334 1 0 0] 
s 1.174745433 _1_ MAC  --- 6 tcp 1598 [13a 0 1 800] ------- [1:0 4:0 30 0] [4 0] 0 0
r 1.187530136 _0_ MAC  --- 6 tcp 1540 [13a 0 1 800] ------- [1:0 4:0 30 0] [4 0] 1 0
s 1.187540136 _0_ MAC  --- 0 ACK 38 [0 1 0 0] 
r 1.187555136 _0_ RTR  --- 6 tcp 1540 [13a 0 1 800] ------- [1:0 4:0 30 0] [4 0] 1 0
f 1.187555136 _0_ RTR  --- 6 tcp 1540 [13a 0 1 800] ------- [1:0 4:0 29 6] [4 0] 1 0
r 1.187844839 _1_ MAC  --- 0 ACK 38 [0 1 0 0] 
s 1.187994136 _0_ MAC  --- 0 RTS 44 [346e 6 0 0] 
r 1.188346940 _6_ MAC  --- 0 RTS 44 [346e 6 0 0] 
s 1.188356940 _6_ MAC  --- 0 CTS 38 [3334 0 0 0] 
r 1.188661743 _0_ MAC  --- 0 CTS 38 [3334 0 0 0] 
s 1.188671743 _0_ MAC  --- 5 tcp 1598 [13a 6 0 800] ------- [1:0 4:0 29 6] [3 0] 1 0
r 1.201456547 _6_ MAC  --- 5 tcp 1540 [13a 6 0 800] ------- [1:0 4:0 29 6] [3 0] 2 0
s 1.201466547 _6_ MAC  --- 0 ACK 38 [0 0 0 0] 
r 1.201481547 _6_ RTR  --- 5 tcp 1540 [13a 6 0 800] ------- [1:0 4:0 29 6] [3 0] 2 0
f 1.201481547 _6_ RTR  --- 5 tcp 1540 [13a 6 0 800] ------- [1:0 4:0 28 3] [3 0] 2 0
r 1.201771351 _0_ MAC  --- 0 ACK 38 [0 0 0 0] 
s 1.201880547 _6_ MAC  --- 0 RTS 44 [346e 3 6 0] 
r 1.202233276 _3_ MAC  --- 0 RTS 44 [346e 3 6 0] 
s 1.202243276 _3_ MAC  --- 0 CTS 38 [3334 6 0 0] 
r 1.202548006 _6_ MAC  --- 0 CTS 38 [3334 6 0 0] 
s 1.202558006 _6_ MAC  --- 5 tcp 1598 [13a 3 6 800] ------- [1:0 4:0 28 3] [3 0] 2 0
r 1.215342735 _3_ MAC  --- 5 tcp 1540 [13a 3 6 800] ------- [1:0 4:0 28 3] [3 0] 3 0
s 1.215352735 _3_ MAC  --- 0 ACK 38 [0 6 0 0] 
r 1.215367735 _3_ RTR  --- 5 tcp 1540 [13a 3 6 800] ------- [1:0 4:0 28 3] [3 0] 3 0
f 1.215367735 _3_ RTR  --- 5 tcp 1540 [13a 3 6 800] ------- [1:0 4:0 27 4] [3 0] 3 0
r 1.215657465 _6_ MAC  --- 0 ACK 38 [0 6 0 0] 
s 1.215846735 _3_ MAC  --- 0 RTS 44 [346e 4 3 0] 
r 1.216199266 _4_ MAC  --- 0 RTS 44 [346e 4 3 0] 
s 1.216209266 _4_ MAC  --- 0 CTS 38 [3334 3 0 0] 
r 1.216513796 _3_ MAC  --- 0 CTS 38 [3334 3 0 0] 
s 1.216523796 _3_ MAC  --- 3 tcp 1598 [13a 4 3 800] ------- [1:0 4:0 27 4] [2 0] 3 0
r 1.229308327 _4_ MAC  --- 3 tcp 1540 [13a 4 3 800] ------- [1:0 4:0 27 4] [2 0] 4 0
s 1.229318327 _4_ MAC  --- 0 ACK 38 [0 3 0 0] 
r 1.229333327 _4_ AGT  --- 3 tcp 1540 [13a 4 3 800] ------- [1:0 4:0 27 4] [2 0] 4 0
s 1.229333327 _4_ AGT  --- 7 ack 40 [0 0 0 0] ------- [4:0 1:0 32 0] [2 0] 0 0
r 1.229333327 _4_ RTR  --- 7 ack 40 [0 0 0 0] ------- [4:0 1:0 32 0] [2 0] 0 0
s 1.229333327 _4_ RTR  --- 7 ack 40 [0 0 0 0] ------- [4:0 1:0 30 3] [2 0] 0 0
r 1.229622857 _3_ MAC  --- 0 ACK 38 [0 3 0 0] 
s 1.229752857 _3_ MAC  --- 0 RTS 44 [346e 4 3 0] 
r 1.230105388 _4_ MAC  --- 0 RTS 44 [346e 4 3 0] 
s 1.230115388 _4_ MAC  --- 0 CTS 38 [3334 3 0 0] 
r 1.230419918 _3_ MAC  --- 0 CTS 38 [3334 3 0 0] 
s 1.230429918 _3_ MAC  --- 5 tcp 1598 [13a 4 3 800] ------- [1:0 4:0 27 4] [3 0] 3 0
r 1.243214449 _4_ MAC  --- 5 tcp 1540 [13a 4 3 800] ------- [1:0 4:0 27 4] [3 0] 4 0
s 1.243224449 _4_ MAC  --- 0 ACK 38 [0 3 0 0] 
r 1.243239449 _4_ AGT  --- 5 tcp 1540 [13a 4 3 800] ------- [1:0 4:0 27 4] [3 0] 4 0
s 1.243239449 _4_ AGT  --- 8 ack 40 [0 0 0 0] ------- [4:0 1:0 32 0] [3 0] 0 0
r 1.243239449 _4_ RTR  --- 8 ack 40 [0 0 0 0] ------- [4:0 1:0 32 0] [3 0] 0 0
s 1.243239449 _4_ RTR  --- 8 ack 40 [0 0 0 0] ------- [4:0 1:0 30 3] [3 0] 0 0
r 1.243528979 _3_ MAC  --- 0 ACK 38 [0 3 0 0] 
s 1.243598449 _4_ MAC  --- 0 RTS 44 [58e 3 4 0] 
r 1.243950979 _3_ MAC  --- 0 RTS 44 [58e 3 4 0] 
s 1.243960979 _3_ MAC  --- 0 CTS 38 [454 4 0 0] 
r 1.244265510 _4_ MAC  --- 0 CTS 38 [454 4 0 0] 
s 1.244275510 _4_ MAC  --- 7 ack 98 [13a 3 4 800] ------- [4:0 1:0 30 3] [2 0] 0 0
r 1.245060040 _3_ MAC  --- 7 ack 40 [13a 3 4 800] ------- [4:0 1:0 30 3] [2 0] 1 0
s 1.245070040 _3_ MAC  --- 0 ACK 38 [0 4 0 0] 
r 1.245085040 _3_ RTR  --- 7 ack 40 [13a 3 4 800] ------- [4:0 1:0 30 3] [2 0] 1 0
f 1.245085040 _3_ RTR  --- 7 ack 40 [13a 3 4 800] ------- [4:0 1:0 29 6] [2 0] 1 0
r 1.245374571 _4_ MAC  --- 0 ACK 38 [0 4 0 0] 
s 1.245624571 _4_ MAC  --- 0 RTS 44 [58e 3 4 0] 
r 1.245977101 _3_ MAC  --- 0 RTS 44 [58e 3 4 0] 
s 1.245987101 _3_ MAC  --- 0 CTS 38 [454 4 0 0] 
r 1.246291632 _4_ MAC  --- 0 CTS 38 [454 4 0 0] 
s 1.246301632 _4_ MAC  --- 8 ack 98 [13a 3 4 800] ------- [4:0 1:0 30 3] [3 0] 0 0
r 1.247086162 _3_ MAC  --- 8 ack 40 [13a 3 4 800] ------- [4:0 1:0 30 3] [3 0] 1 0
s 1.247096162 _3_ MAC  --- 0 ACK 38 [0 4 0 0] 
r 1.247111162 _3_ RTR  --- 8 ack 40 [13a 3 4 800] ------- [4:0 1:0 30 3] [3 0] 1 0
f 1.247111162 _3_ RTR  --- 8 ack 40 [13a 3 4 800] ------- [4:0 1:0 29 6] [3 0] 1 0
r 1.247400693 _4_ MAC  --- 0 ACK 38 [0 4 0 0] 
s 1.247510162 _3_ MAC  --- 0 RTS 44 [58e 6 3 0] 
r 1.247862892 _6_ MAC  --- 0 RTS 44 [58e 6 3 0] 
s 1.247872892 _6_ MAC  --- 0 CTS 38 [454 3 0 0] 
r 1.248177621 _3_ MAC  --- 0 CTS 38 [454 3 0 0] 
s 1.248187621 _3_ MAC  --- 7 ack 98 [13a 6 3 800] ------- [4:0 1:0 29 6] [2 0] 1 0
r 1.248972351 _6_ MAC  --- 7 ack 40 [13a 6 3 800] ------- [4:0 1:0 29 6] [2 0] 2 0
s 1.248982351 _6_ MAC  --- 0 ACK 38 [0 3 0 0] 
r 1.248997351 _6_ RTR  --- 7 ack 40 [13a 6 3 800] ------- [4:0 1:0 29 6] [2 0] 2 0
f 1.248997351 _6_ RTR  --- 7 ack 40 [13a 6 3 800] ------- [4:0 1:0 28 0] [2 0] 2 0
r 1.249287080 _3_ MAC  --- 0 ACK 38 [0 3 0 0] 
s 1.249466974 _0_ MAC  --- 0 RTS 44 [346e 6 0 0] 
r 1.249819778 _6_ MAC  --- 0 RTS 44 [346e 6 0 0] 
s 1.249829778 _6_ MAC  --- 0 CTS 38 [3334 0 0 0] 
r 1.250134581 _0_ MAC  --- 0 CTS 38 [3334 0 0 0] 
s 1.250144581 _0_ MAC  --- 6 tcp 1598 [13a 6 0 800] ------- [1:0 4:0 29 6] [4 0] 1 0
r 1.262929385 _6_ MAC  --- 6 tcp 1540 [13a 6 0 800] ------- [1:0 4:0 29 6] [4 0] 2 0
s 1.262939385 _6_ MAC  --- 0 ACK 38 [0 0 0 0] 
r 1.262954385 _6_ RTR  --- 6 tcp 1540 [13a 6 0 800] ------- [1:0 4:0 29 6] [4 0] 2 0
f 1.262954385 _6_ RTR  --- 6 tcp 1540 [13a 6 0 800] ------- [1:0 4:0 28 3] [4 0] 2 0
r 1.263244189 _0_ MAC  --- 0 ACK 38 [0 0 0 0] 
s 1.263513385 _6_ MAC  --- 0 RTS 44 [58e 0 6 0] 
r 1.263866189 _0_ MAC  --- 0 RTS 44 [58e 0 6 0] 
s 1.263876189 _0_ MAC  --- 0 CTS 38 [454 6 0 0] 
r 1.264180992 _6_ MAC  --- 0 CTS 38 [454 6 0 0] 
s 1.264190992 _6_ MAC  --- 7 ack 98 [13a 0 6 800] ------- [4:0 1:0 28 0] [2 0] 2 0
r 1.264975796 _0_ MAC  --- 7 ack 40 [13a 0 6 800] ------- [4:0 1:0 28 0] [2 0] 3 0
s 1.264985796 _0_ MAC  --- 0 ACK 38 [0 6 0 0] 