n -t * -s 0  -x 393 -y 393 -Z 0 -z 20  -v circle -c black
n -t * -s 1  -x 283 -y 213 -Z 0 -z 20  -v circle -c black
n -t * -s 2  -x 540 -y 217 -Z 0 -z 20  -v circle -c black
n -t * -s 3  -x 798 -y 367 -Z 0 -z 20  -v circle -c black
n -t * -s 4  -x 791 -y 208 -Z 0 -z 20  -v circle -c black
n -t * -s 5  -x 1019 -y 314 -Z 0 -z 20  -v circle -c black
n -t * -s 6  -x 615 -y 487 -Z 0 -z 20  -v circle -c black
V -t * -v 1.0a5 -a 0
W -t * -x 1119 -y 587
A -t * -n 1 -p 0 -o 0x7fffffff -c 30 -a 1
A -t * -h 1 -m 1073741823 -s 0
+ -t 1.000000000 -s 1 -d -1 -p tcp -e 40 -c 2 -a 0 -i 0 -k AGT 
- -t 1.000000000 -s 1 -d -1 -p tcp -e 40 -c 2 -a 0 -i 0 -k AGT
h -t 1.000000000 -s 1 -d -1 -p tcp -e 40 -c 2 -a 0 -i 0 -k AGT
+ -t 1.000000000 -s 1 -d -1 -p AODV -e 48 -c 2 -a 0 -i 0 -k RTR 
- -t 1.000000000 -s 1 -d -1 -p AODV -e 48 -c 2 -a 0 -i 0 -k RTR
h -t 1.000000000 -s 1 -d -1 -p AODV -e 48 -c 2 -a 0 -i 0 -k RTR
+ -t 1.000115000 -s 1 -d -1 -p AODV -e 106 -c 2 -a 0 -i 0 -k MAC 
- -t 1.000115000 -s 1 -d -1 -p AODV -e 106 -c 2 -a 0 -i 0 -k MAC
h -t 1.000115000 -s 1 -d -1 -p AODV -e 106 -c 2 -a 0 -i 0 -k MAC
r -t 1.000963703 -s 0 -d -1 -p AODV -e 48 -c 2 -a 0 -i 0 -k MAC
r -t 1.000988703 -s 0 -d -1 -p AODV -e 48 -c 2 -a 0 -i 0 -k RTR
+ -t 1.001869930 -s 0 -d -1 -p AODV -e 48 -c 2 -a 0 -i 0 -k RTR 
- -t 1.001869930 -s 0 -d -1 -p AODV -e 48 -c 2 -a 0 -i 0 -k RTR
h -t 1.001869930 -s 0 -d -1 -p AODV -e 48 -c 2 -a 0 -i 0 -k RTR
+ -t 1.002264930 -s 0 -d -1 -p AODV -e 106 -c 2 -a 0 -i 0 -k MAC 
- -t 1.002264930 -s 0 -d -1 -p AODV -e 106 -c 2 -a 0 -i 0 -k MAC
h -t 1.002264930 -s 0 -d -1 -p AODV -e 106 -c 2 -a 0 -i 0 -k MAC
r -t 1.003113633 -s 1 -d -1 -p AODV -e 48 -c 2 -a 0 -i 0 -k MAC
r -t 1.003113694 -s 2 -d -1 -p AODV -e 48 -c 2 -a 0 -i 0 -k MAC
r -t 1.003113733 -s 6 -d -1 -p AODV -e 48 -c 2 -a 0 -i 0 -k MAC
r -t 1.003138633 -s 1 -d -1 -p AODV -e 48 -c 2 -a 0 -i 0 -k RTR
r -t 1.003138694 -s 2 -d -1 -p AODV -e 48 -c 2 -a 0 -i 0 -k RTR
r -t 1.003138733 -s 6 -d -1 -p AODV -e 48 -c 2 -a 0 -i 0 -k RTR
+ -t 1.006268312 -s 2 -d -1 -p AODV -e 48 -c 2 -a 0 -i 0 -k RTR 
- -t 1.006268312 -s 2 -d -1 -p AODV -e 48 -c 2 -a 0 -i 0 -k RTR
h -t 1.006268312 -s 2 -d -1 -p AODV -e 48 -c 2 -a 0 -i 0 -k RTR
+ -t 1.006583312 -s 2 -d -1 -p AODV -e 106 -c 2 -a 0 -i 0 -k MAC 
- -t 1.006583312 -s 2 -d -1 -p AODV -e 106 -c 2 -a 0 -i 0 -k MAC
h -t 1.006583312 -s 2 -d -1 -p AODV -e 106 -c 2 -a 0 -i 0 -k MAC
r -t 1.007432076 -s 0 -d -1 -p AODV -e 48 -c 2 -a 0 -i 0 -k MAC
r -t 1.007457076 -s 0 -d -1 -p AODV -e 48 -c 2 -a 0 -i 0 -k RTR
+ -t 1.011303494 -s 6 -d -1 -p AODV -e 48 -c 2 -a 0 -i 0 -k RTR 
- -t 1.011303494 -s 6 -d -1 -p AODV -e 48 -c 2 -a 0 -i 0 -k RTR
h -t 1.011303494 -s 6 -d -1 -p AODV -e 48 -c 2 -a 0 -i 0 -k RTR
+ -t 1.011638494 -s 6 -d -1 -p AODV -e 106 -c 2 -a 0 -i 0 -k MAC 
- -t 1.011638494 -s 6 -d -1 -p AODV -e 106 -c 2 -a 0 -i 0 -k MAC
h -t 1.011638494 -s 6 -d -1 -p AODV -e 106 -c 2 -a 0 -i 0 -k MAC
r -t 1.012487223 -s 3 -d -1 -p AODV -e 48 -c 2 -a 0 -i 0 -k MAC
r -t 1.012487298 -s 0 -d -1 -p AODV -e 48 -c 2 -a 0 -i 0 -k MAC
r -t 1.012512223 -s 3 -d -1 -p AODV -e 48 -c 2 -a 0 -i 0 -k RTR
r -t 1.012512298 -s 0 -d -1 -p AODV -e 48 -c 2 -a 0 -i 0 -k RTR
+ -t 1.014153678 -s 3 -d -1 -p AODV -e 48 -c 2 -a 0 -i 0 -k RTR 
- -t 1.014153678 -s 3 -d -1 -p AODV -e 48 -c 2 -a 0 -i 0 -k RTR
h -t 1.014153678 -s 3 -d -1 -p AODV -e 48 -c 2 -a 0 -i 0 -k RTR
+ -t 1.014768678 -s 3 -d -1 -p AODV -e 106 -c 2 -a 0 -i 0 -k MAC 
- -t 1.014768678 -s 3 -d -1 -p AODV -e 106 -c 2 -a 0 -i 0 -k MAC
h -t 1.014768678 -s 3 -d -1 -p AODV -e 106 -c 2 -a 0 -i 0 -k MAC
r -t 1.015617208 -s 4 -d -1 -p AODV -e 48 -c 2 -a 0 -i 0 -k MAC
r -t 1.015617407 -s 6 -d -1 -p AODV -e 48 -c 2 -a 0 -i 0 -k MAC
r -t 1.015617435 -s 5 -d -1 -p AODV -e 48 -c 2 -a 0 -i 0 -k MAC
r -t 1.015642208 -s 4 -d -1 -p AODV -e 48 -c 2 -a 0 -i 0 -k RTR
+ -t 1.015642208 -s 4 -d 3 -p AODV -e 44 -c 2 -a 0 -i 0 -k RTR 
- -t 1.015642208 -s 4 -d 3 -p AODV -e 44 -c 2 -a 0 -i 0 -k RTR
h -t 1.015642208 -s 4 -d 3 -p AODV -e 44 -c 2 -a 0 -i 0 -k RTR
r -t 1.015642407 -s 6 -d -1 -p AODV -e 48 -c 2 -a 0 -i 0 -k RTR
r -t 1.015642435 -s 5 -d -1 -p AODV -e 48 -c 2 -a 0 -i 0 -k RTR
+ -t 1.015937208 -s 4 -d -1 -p ARP -e 86 -c 2 -a 0 -i 0 -k MAC 
- -t 1.015937208 -s 4 -d -1 -p ARP -e 86 -c 2 -a 0 -i 0 -k MAC
h -t 1.015937208 -s 4 -d -1 -p ARP -e 86 -c 2 -a 0 -i 0 -k MAC
r -t 1.016625739 -s 3 -d -1 -p ARP -e 28 -c 2 -a 0 -i 0 -k MAC
+ -t 1.016780518 -s 5 -d -1 -p AODV -e 48 -c 2 -a 0 -i 0 -k RTR 
- -t 1.016780518 -s 5 -d -1 -p AODV -e 48 -c 2 -a 0 -i 0 -k RTR
h -t 1.016780518 -s 5 -d -1 -p AODV -e 48 -c 2 -a 0 -i 0 -k RTR
+ -t 1.017160739 -s 3 -d -1 -p RTS -e 44 -c 2 -a 0 -i 0 -k MAC 
- -t 1.017160739 -s 3 -d -1 -p RTS -e 44 -c 2 -a 0 -i 0 -k MAC
h -t 1.017160739 -s 3 -d -1 -p RTS -e 44 -c 2 -a 0 -i 0 -k MAC
r -t 1.017513269 -s 4 -d -1 -p RTS -e 44 -c 2 -a 0 -i 0 -k MAC
+ -t 1.017523269 -s 4 -d -1 -p CTS -e 38 -c 2 -a 0 -i 0 -k MAC 
- -t 1.017523269 -s 4 -d -1 -p CTS -e 38 -c 2 -a 0 -i 0 -k MAC
h -t 1.017523269 -s 4 -d -1 -p CTS -e 38 -c 2 -a 0 -i 0 -k MAC
r -t 1.017827800 -s 3 -d -1 -p CTS -e 38 -c 2 -a 0 -i 0 -k MAC
+ -t 1.017837800 -s 3 -d -1 -p ARP -e 86 -c 2 -a 0 -i 0 -k MAC 
- -t 1.017837800 -s 3 -d -1 -p ARP -e 86 -c 2 -a 0 -i 0 -k MAC
h -t 1.017837800 -s 3 -d -1 -p ARP -e 86 -c 2 -a 0 -i 0 -k MAC
r -t 1.018526330 -s 4 -d -1 -p ARP -e 28 -c 2 -a 0 -i 0 -k MAC
+ -t 1.018536330 -s 4 -d -1 -p ACK -e 38 -c 2 -a 0 -i 0 -k MAC 
- -t 1.018536330 -s 4 -d -1 -p ACK -e 38 -c 2 -a 0 -i 0 -k MAC
h -t 1.018536330 -s 4 -d -1 -p ACK -e 38 -c 2 -a 0 -i 0 -k MAC
r -t 1.018840861 -s 3 -d -1 -p ACK -e 38 -c 2 -a 0 -i 0 -k MAC
+ -t 1.019210330 -s 4 -d -1 -p RTS -e 44 -c 2 -a 0 -i 0 -k MAC 
- -t 1.019210330 -s 4 -d -1 -p RTS -e 44 -c 2 -a 0 -i 0 -k MAC
h -t 1.019210330 -s 4 -d -1 -p RTS -e 44 -c 2 -a 0 -i 0 -k MAC
r -t 1.019562861 -s 3 -d -1 -p RTS -e 44 -c 2 -a 0 -i 0 -k MAC
+ -t 1.019572861 -s 3 -d -1 -p CTS -e 38 -c 2 -a 0 -i 0 -k MAC 
- -t 1.019572861 -s 3 -d -1 -p CTS -e 38 -c 2 -a 0 -i 0 -k MAC
h -t 1.019572861 -s 3 -d -1 -p CTS -e 38 -c 2 -a 0 -i 0 -k MAC
r -t 1.019877391 -s 4 -d -1 -p CTS -e 38 -c 2 -a 0 -i 0 -k MAC
+ -t 1.019887391 -s 4 -d 3 -p AODV -e 102 -c 2 -a 0 -i 0 -k MAC 
- -t 1.019887391 -s 4 -d 3 -p AODV -e 102 -c 2 -a 0 -i 0 -k MAC
h -t 1.019887391 -s 4 -d 3 -p AODV -e 102 -c 2 -a 0 -i 0 -k MAC
r -t 1.020703922 -s 3 -d 3 -p AODV -e 44 -c 2 -a 0 -i 0 -k MAC
+ -t 1.020713922 -s 3 -d -1 -p ACK -e 38 -c 2 -a 0 -i 0 -k MAC 
- -t 1.020713922 -s 3 -d -1 -p ACK -e 38 -c 2 -a 0 -i 0 -k MAC
h -t 1.020713922 -s 3 -d -1 -p ACK -e 38 -c 2 -a 0 -i 0 -k MAC
+ -t 1.020728922 -s 3 -d 6 -p AODV -e 44 -c 2 -a 0 -i 0 -k RTR 
- -t 1.020728922 -s 3 -d 6 -p AODV -e 44 -c 2 -a 0 -i 0 -k RTR
h -t 1.020728922 -s 3 -d 6 -p AODV -e 44 -c 2 -a 0 -i 0 -k RTR
r -t 1.021018452 -s 4 -d -1 -p ACK -e 38 -c 2 -a 0 -i 0 -k MAC
+ -t 1.021287922 -s 3 -d -1 -p ARP -e 86 -c 2 -a 0 -i 0 -k MAC 
- -t 1.021287922 -s 3 -d -1 -p ARP -e 86 -c 2 -a 0 -i 0 -k MAC
h -t 1.021287922 -s 3 -d -1 -p ARP -e 86 -c 2 -a 0 -i 0 -k MAC
r -t 1.021976452 -s 4 -d -1 -p ARP -e 28 -c 2 -a 0 -i 0 -k MAC
r -t 1.021976651 -s 6 -d -1 -p ARP -e 28 -c 2 -a 0 -i 0 -k MAC
r -t 1.021976679 -s 5 -d -1 -p ARP -e 28 -c 2 -a 0 -i 0 -k MAC
+ -t 1.022086679 -s 5 -d -1 -p AODV -e 106 -c 2 -a 0 -i 0 -k MAC 
- -t 1.022086679 -s 5 -d -1 -p AODV -e 106 -c 2 -a 0 -i 0 -k MAC
h -t 1.022086679 -s 5 -d -1 -p AODV -e 106 -c 2 -a 0 -i 0 -k MAC
r -t 1.022935437 -s 3 -d -1 -p AODV -e 48 -c 2 -a 0 -i 0 -k MAC
r -t 1.022960437 -s 3 -d -1 -p AODV -e 48 -c 2 -a 0 -i 0 -k RTR
+ -t 1.023750144 -s 6 -d -1 -p RTS -e 44 -c 2 -a 0 -i 0 -k MAC 
- -t 1.023750144 -s 6 -d -1 -p RTS -e 44 -c 2 -a 0 -i 0 -k MAC
h -t 1.023750144 -s 6 -d -1 -p RTS -e 44 -c 2 -a 0 -i 0 -k MAC
r -t 1.024102874 -s 3 -d -1 -p RTS -e 44 -c 2 -a 0 -i 0 -k MAC
+ -t 1.024112874 -s 3 -d -1 -p CTS -e 38 -c 2 -a 0 -i 0 -k MAC 
- -t 1.024112874 -s 3 -d -1 -p CTS -e 38 -c 2 -a 0 -i 0 -k MAC
h -t 1.024112874 -s 3 -d -1 -p CTS -e 38 -c 2 -a 0 -i 0 -k MAC
r -t 1.024417603 -s 6 -d -1 -p CTS -e 38 -c 2 -a 0 -i 0 -k MAC
+ -t 1.024427603 -s 6 -d -1 -p ARP -e 86 -c 2 -a 0 -i 0 -k MAC 
- -t 1.024427603 -s 6 -d -1 -p ARP -e 86 -c 2 -a 0 -i 0 -k MAC
h -t 1.024427603 -s 6 -d -1 -p ARP -e 86 -c 2 -a 0 -i 0 -k MAC
r -t 1.025116332 -s 3 -d -1 -p ARP -e 28 -c 2 -a 0 -i 0 -k MAC
+ -t 1.025126332 -s 3 -d -1 -p ACK -e 38 -c 2 -a 0 -i 0 -k MAC 
- -t 1.025126332 -s 3 -d -1 -p ACK -e 38 -c 2 -a 0 -i 0 -k MAC
h -t 1.025126332 -s 3 -d -1 -p ACK -e 38 -c 2 -a 0 -i 0 -k MAC
r -t 1.025431062 -s 6 -d -1 -p ACK -e 38 -c 2 -a 0 -i 0 -k MAC
+ -t 1.026060332 -s 3 -d -1 -p RTS -e 44 -c 2 -a 0 -i 0 -k MAC 
- -t 1.026060332 -s 3 -d -1 -p RTS -e 44 -c 2 -a 0 -i 0 -k MAC
h -t 1.026060332 -s 3 -d -1 -p RTS -e 44 -c 2 -a 0 -i 0 -k MAC
r -t 1.026413062 -s 6 -d -1 -p RTS -e 44 -c 2 -a 0 -i 0 -k MAC
+ -t 1.026423062 -s 6 -d -1 -p CTS -e 38 -c 2 -a 0 -i 0 -k MAC 
- -t 1.026423062 -s 6 -d -1 -p CTS -e 38 -c 2 -a 0 -i 0 -k MAC
h -t 1.026423062 -s 6 -d -1 -p CTS -e 38 -c 2 -a 0 -i 0 -k MAC
r -t 1.026727791 -s 3 -d -1 -p CTS -e 38 -c 2 -a 0 -i 0 -k MAC
+ -t 1.026737791 -s 3 -d 6 -p AODV -e 102 -c 2 -a 0 -i 0 -k MAC 
- -t 1.026737791 -s 3 -d 6 -p AODV -e 102 -c 2 -a 0 -i 0 -k MAC
h -t 1.026737791 -s 3 -d 6 -p AODV -e 102 -c 2 -a 0 -i 0 -k MAC
r -t 1.027554521 -s 6 -d 6 -p AODV -e 44 -c 2 -a 0 -i 0 -k MAC
+ -t 1.027564521 -s 6 -d -1 -p ACK -e 38 -c 2 -a 0 -i 0 -k MAC 
- -t 1.027564521 -s 6 -d -1 -p ACK -e 38 -c 2 -a 0 -i 0 -k MAC
h -t 1.027564521 -s 6 -d -1 -p ACK -e 38 -c 2 -a 0 -i 0 -k MAC
+ -t 1.027579521 -s 6 -d 0 -p AODV -e 44 -c 2 -a 0 -i 0 -k RTR 
- -t 1.027579521 -s 6 -d 0 -p AODV -e 44 -c 2 -a 0 -i 0 -k RTR
h -t 1.027579521 -s 6 -d 0 -p AODV -e 44 -c 2 -a 0 -i 0 -k RTR
r -t 1.027869250 -s 3 -d -1 -p ACK -e 38 -c 2 -a 0 -i 0 -k MAC
+ -t 1.028458521 -s 6 -d -1 -p ARP -e 86 -c 2 -a 0 -i 0 -k MAC 
- -t 1.028458521 -s 6 -d -1 -p ARP -e 86 -c 2 -a 0 -i 0 -k MAC
h -t 1.028458521 -s 6 -d -1 -p ARP -e 86 -c 2 -a 0 -i 0 -k MAC
r -t 1.029147250 -s 3 -d -1 -p ARP -e 28 -c 2 -a 0 -i 0 -k MAC
r -t 1.029147324 -s 0 -d -1 -p ARP -e 28 -c 2 -a 0 -i 0 -k MAC
+ -t 1.029502324 -s 0 -d -1 -p RTS -e 44 -c 2 -a 0 -i 0 -k MAC 
- -t 1.029502324 -s 0 -d -1 -p RTS -e 44 -c 2 -a 0 -i 0 -k MAC
h -t 1.029502324 -s 0 -d -1 -p RTS -e 44 -c 2 -a 0 -i 0 -k MAC
r -t 1.029855128 -s 6 -d -1 -p RTS -e 44 -c 2 -a 0 -i 0 -k MAC
+ -t 1.029865128 -s 6 -d -1 -p CTS -e 38 -c 2 -a 0 -i 0 -k MAC 
- -t 1.029865128 -s 6 -d -1 -p CTS -e 38 -c 2 -a 0 -i 0 -k MAC
h -t 1.029865128 -s 6 -d -1 -p CTS -e 38 -c 2 -a 0 -i 0 -k MAC
r -t 1.030169932 -s 0 -d -1 -p CTS -e 38 -c 2 -a 0 -i 0 -k MAC
+ -t 1.030179932 -s 0 -d -1 -p ARP -e 86 -c 2 -a 0 -i 0 -k MAC 
- -t 1.030179932 -s 0 -d -1 -p ARP -e 86 -c 2 -a 0 -i 0 -k MAC
h -t 1.030179932 -s 0 -d -1 -p ARP -e 86 -c 2 -a 0 -i 0 -k MAC
r -t 1.030868735 -s 6 -d -1 -p ARP -e 28 -c 2 -a 0 -i 0 -k MAC
+ -t 1.030878735 -s 6 -d -1 -p ACK -e 38 -c 2 -a 0 -i 0 -k MAC 
- -t 1.030878735 -s 6 -d -1 -p ACK -e 38 -c 2 -a 0 -i 0 -k MAC
h -t 1.030878735 -s 6 -d -1 -p ACK -e 38 -c 2 -a 0 -i 0 -k MAC
r -t 1.031183539 -s 0 -d -1 -p ACK -e 38 -c 2 -a 0 -i 0 -k MAC
+ -t 1.031592735 -s 6 -d -1 -p RTS -e 44 -c 2 -a 0 -i 0 -k MAC 
- -t 1.031592735 -s 6 -d -1 -p RTS -e 44 -c 2 -a 0 -i 0 -k MAC
h -t 1.031592735 -s 6 -d -1 -p RTS -e 44 -c 2 -a 0 -i 0 -k MAC
r -t 1.031945539 -s 0 -d -1 -p RTS -e 44 -c 2 -a 0 -i 0 -k MAC
+ -t 1.031955539 -s 0 -d -1 -p CTS -e 38 -c 2 -a 0 -i 0 -k MAC 
- -t 1.031955539 -s 0 -d -1 -p CTS -e 38 -c 2 -a 0 -i 0 -k MAC
h -t 1.031955539 -s 0 -d -1 -p CTS -e 38 -c 2 -a 0 -i 0 -k MAC
r -t 1.032260342 -s 6 -d -1 -p CTS -e 38 -c 2 -a 0 -i 0 -k MAC
+ -t 1.032270342 -s 6 -d 0 -p AODV -e 102 -c 2 -a 0 -i 0 -k MAC 
- -t 1.032270342 -s 6 -d 0 -p AODV -e 102 -c 2 -a 0 -i 0 -k MAC
h -t 1.032270342 -s 6 -d 0 -p AODV -e 102 -c 2 -a 0 -i 0 -k MAC
r -t 1.033087146 -s 0 -d 0 -p AODV -e 44 -c 2 -a 0 -i 0 -k MAC
+ -t 1.033097146 -s 0 -d -1 -p ACK -e 38 -c 2 -a 0 -i 0 -k MAC 
- -t 1.033097146 -s 0 -d -1 -p ACK -e 38 -c 2 -a 0 -i 0 -k MAC
h -t 1.033097146 -s 0 -d -1 -p ACK -e 38 -c 2 -a 0 -i 0 -k MAC
+ -t 1.033112146 -s 0 -d 1 -p AODV -e 44 -c 2 -a 0 -i 0 -k RTR 
- -t 1.033112146 -s 0 -d 1 -p AODV -e 44 -c 2 -a 0 -i 0 -k RTR
h -t 1.033112146 -s 0 -d 1 -p AODV -e 44 -c 2 -a 0 -i 0 -k RTR
r -t 1.033401950 -s 6 -d -1 -p ACK -e 38 -c 2 -a 0 -i 0 -k MAC
+ -t 1.033531146 -s 0 -d -1 -p ARP -e 86 -c 2 -a 0 -i 0 -k MAC 
- -t 1.033531146 -s 0 -d -1 -p ARP -e 86 -c 2 -a 0 -i 0 -k MAC
h -t 1.033531146 -s 0 -d -1 -p ARP -e 86 -c 2 -a 0 -i 0 -k MAC
r -t 1.034219849 -s 1 -d -1 -p ARP -e 28 -c 2 -a 0 -i 0 -k MAC
r -t 1.034219910 -s 2 -d -1 -p ARP -e 28 -c 2 -a 0 -i 0 -k MAC
r -t 1.034219950 -s 6 -d -1 -p ARP -e 28 -c 2 -a 0 -i 0 -k MAC
+ -t 1.034374849 -s 1 -d -1 -p RTS -e 44 -c 2 -a 0 -i 0 -k MAC 
- -t 1.034374849 -s 1 -d -1 -p RTS -e 44 -c 2 -a 0 -i 0 -k MAC
h -t 1.034374849 -s 1 -d -1 -p RTS -e 44 -c 2 -a 0 -i 0 -k MAC
r -t 1.034727552 -s 0 -d -1 -p RTS -e 44 -c 2 -a 0 -i 0 -k MAC
+ -t 1.034737552 -s 0 -d -1 -p CTS -e 38 -c 2 -a 0 -i 0 -k MAC 
- -t 1.034737552 -s 0 -d -1 -p CTS -e 38 -c 2 -a 0 -i 0 -k MAC
h -t 1.034737552 -s 0 -d -1 -p CTS -e 38 -c 2 -a 0 -i 0 -k MAC
r -t 1.035042256 -s 1 -d -1 -p CTS -e 38 -c 2 -a 0 -i 0 -k MAC
+ -t 1.035052256 -s 1 -d -1 -p ARP -e 86 -c 2 -a 0 -i 0 -k MAC 
- -t 1.035052256 -s 1 -d -1 -p ARP -e 86 -c 2 -a 0 -i 0 -k MAC
h -t 1.035052256 -s 1 -d -1 -p ARP -e 86 -c 2 -a 0 -i 0 -k MAC
r -t 1.035740959 -s 0 -d -1 -p ARP -e 28 -c 2 -a 0 -i 0 -k MAC
+ -t 1.035750959 -s 0 -d -1 -p ACK -e 38 -c 2 -a 0 -i 0 -k MAC 
- -t 1.035750959 -s 0 -d -1 -p ACK -e 38 -c 2 -a 0 -i 0 -k MAC
h -t 1.035750959 -s 0 -d -1 -p ACK -e 38 -c 2 -a 0 -i 0 -k MAC
r -t 1.036055662 -s 1 -d -1 -p ACK -e 38 -c 2 -a 0 -i 0 -k MAC
+ -t 1.036204959 -s 0 -d -1 -p RTS -e 44 -c 2 -a 0 -i 0 -k MAC 
- -t 1.036204959 -s 0 -d -1 -p RTS -e 44 -c 2 -a 0 -i 0 -k MAC
h -t 1.036204959 -s 0 -d -1 -p RTS -e 44 -c 2 -a 0 -i 0 -k MAC
r -t 1.036557662 -s 1 -d -1 -p RTS -e 44 -c 2 -a 0 -i 0 -k MAC
+ -t 1.036567662 -s 1 -d -1 -p CTS -e 38 -c 2 -a 0 -i 0 -k MAC 
- -t 1.036567662 -s 1 -d -1 -p CTS -e 38 -c 2 -a 0 -i 0 -k MAC
h -t 1.036567662 -s 1 -d -1 -p CTS -e 38 -c 2 -a 0 -i 0 -k MAC
r -t 1.036872365 -s 0 -d -1 -p CTS -e 38 -c 2 -a 0 -i 0 -k MAC
+ -t 1.036882365 -s 0 -d 1 -p AODV -e 102 -c 2 -a 0 -i 0 -k MAC 
- -t 1.036882365 -s 0 -d 1 -p AODV -e 102 -c 2 -a 0 -i 0 -k MAC
h -t 1.036882365 -s 0 -d 1 -p AODV -e 102 -c 2 -a 0 -i 0 -k MAC
r -t 1.037699068 -s 1 -d 1 -p AODV -e 44 -c 2 -a 0 -i 0 -k MAC
+ -t 1.037709068 -s 1 -d -1 -p ACK -e 38 -c 2 -a 0 -i 0 -k MAC 
- -t 1.037709068 -s 1 -d -1 -p ACK -e 38 -c 2 -a 0 -i 0 -k MAC
h -t 1.037709068 -s 1 -d -1 -p ACK -e 38 -c 2 -a 0 -i 0 -k MAC
+ -t 1.037724068 -s 1 -d 0 -p tcp -e 40 -c 2 -a 0 -i 0 -k RTR 
- -t 1.037724068 -s 1 -d 0 -p tcp -e 40 -c 2 -a 0 -i 0 -k RTR
h -t 1.037724068 -s 1 -d 0 -p tcp -e 40 -c 2 -a 0 -i 0 -k RTR
r -t 1.038013771 -s 0 -d -1 -p ACK -e 38 -c 2 -a 0 -i 0 -k MAC
+ -t 1.038503068 -s 1 -d -1 -p RTS -e 44 -c 2 -a 0 -i 0 -k MAC 
- -t 1.038503068 -s 1 -d -1 -p RTS -e 44 -c 2 -a 0 -i 0 -k MAC
h -t 1.038503068 -s 1 -d -1 -p RTS -e 44 -c 2 -a 0 -i 0 -k MAC
r -t 1.038855771 -s 0 -d -1 -p RTS -e 44 -c 2 -a 0 -i 0 -k MAC
+ -t 1.038865771 -s 0 -d -1 -p CTS -e 38 -c 2 -a 0 -i 0 -k MAC 
- -t 1.038865771 -s 0 -d -1 -p CTS -e 38 -c 2 -a 0 -i 0 -k MAC
h -t 1.038865771 -s 0 -d -1 -p CTS -e 38 -c 2 -a 0 -i 0 -k MAC
r -t 1.039170475 -s 1 -d -1 -p CTS -e 38 -c 2 -a 0 -i 0 -k MAC
+ -t 1.039180475 -s 1 -d 0 -p tcp -e 98 -c 2 -a 0 -i 0 -k MAC 
- -t 1.039180475 -s 1 -d 0 -p tcp -e 98 -c 2 -a 0 -i 0 -k MAC
h -t 1.039180475 -s 1 -d 0 -p tcp -e 98 -c 2 -a 0 -i 0 -k MAC
r -t 1.039965178 -s 0 -d 0 -p tcp -e 40 -c 2 -a 0 -i 0 -k MAC
+ -t 1.039975178 -s 0 -d -1 -p ACK -e 38 -c 2 -a 0 -i 0 -k MAC 
- -t 1.039975178 -s 0 -d -1 -p ACK -e 38 -c 2 -a 0 -i 0 -k MAC
h -t 1.039975178 -s 0 -d -1 -p ACK -e 38 -c 2 -a 0 -i 0 -k MAC
+ -t 1.039990178 -s 0 -d 6 -p tcp -e 40 -c 2 -a 0 -i 0 -k RTR 
- -t 1.039990178 -s 0 -d 6 -p tcp -e 40 -c 2 -a 0 -i 0 -k RTR
h -t 1.039990178 -s 0 -d 6 -p tcp -e 40 -c 2 -a 0 -i 0 -k RTR
r -t 1.040279881 -s 1 -d -1 -p ACK -e 38 -c 2 -a 0 -i 0 -k MAC
+ -t 1.040529178 -s 0 -d -1 -p RTS -e 44 -c 2 -a 0 -i 0 -k MAC 
- -t 1.040529178 -s 0 -d -1 -p RTS -e 44 -c 2 -a 0 -i 0 -k MAC
h -t 1.040529178 -s 0 -d -1 -p RTS -e 44 -c 2 -a 0 -i 0 -k MAC
r -t 1.040881981 -s 6 -d -1 -p RTS -e 44 -c 2 -a 0 -i 0 -k MAC
+ -t 1.040891981 -s 6 -d -1 -p CTS -e 38 -c 2 -a 0 -i 0 -k MAC 
- -t 1.040891981 -s 6 -d -1 -p CTS -e 38 -c 2 -a 0 -i 0 -k MAC
h -t 1.040891981 -s 6 -d -1 -p CTS -e 38 -c 2 -a 0 -i 0 -k MAC
r -t 1.041196785 -s 0 -d -1 -p CTS -e 38 -c 2 -a 0 -i 0 -k MAC
+ -t 1.041206785 -s 0 -d 6 -p tcp -e 98 -c 2 -a 0 -i 0 -k MAC 
- -t 1.041206785 -s 0 -d 6 -p tcp -e 98 -c 2 -a 0 -i 0 -k MAC
h -t 1.041206785 -s 0 -d 6 -p tcp -e 98 -c 2 -a 0 -i 0 -k MAC
r -t 1.041991589 -s 6 -d 6 -p tcp -e 40 -c 2 -a 0 -i 0 -k MAC
+ -t 1.042001589 -s 6 -d -1 -p ACK -e 38 -c 2 -a 0 -i 0 -k MAC 
- -t 1.042001589 -s 6 -d -1 -p ACK -e 38 -c 2 -a 0 -i 0 -k MAC
h -t 1.042001589 -s 6 -d -1 -p ACK -e 38 -c 2 -a 0 -i 0 -k MAC
+ -t 1.042016589 -s 6 -d 3 -p tcp -e 40 -c 2 -a 0 -i 0 -k RTR 
- -t 1.042016589 -s 6 -d 3 -p tcp -e 40 -c 2 -a 0 -i 0 -k RTR
h -t 1.042016589 -s 6 -d 3 -p tcp -e 40 -c 2 -a 0 -i 0 -k RTR
r -t 1.042306392 -s 0 -d -1 -p ACK -e 38 -c 2 -a 0 -i 0 -k MAC
+ -t 1.042415589 -s 6 -d -1 -p RTS -e 44 -c 2 -a 0 -i 0 -k MAC 
- -t 1.042415589 -s 6 -d -1 -p RTS -e 44 -c 2 -a 0 -i 0 -k MAC
h -t 1.042415589 -s 6 -d -1 -p RTS -e 44 -c 2 -a 0 -i 0 -k MAC
r -t 1.042768318 -s 3 -d -1 -p RTS -e 44 -c 2 -a 0 -i 0 -k MAC
+ -t 1.042778318 -s 3 -d -1 -p CTS -e 38 -c 2 -a 0 -i 0 -k MAC 
- -t 1.042778318 -s 3 -d -1 -p CTS -e 38 -c 2 -a 0 -i 0 -k MAC
h -t 1.042778318 -s 3 -d -1 -p CTS -e 38 -c 2 -a 0 -i 0 -k MAC
r -t 1.043083047 -s 6 -d -1 -p CTS -e 38 -c 2 -a 0 -i 0 -k MAC
+ -t 1.043093047 -s 6 -d 3 -p tcp -e 98 -c 2 -a 0 -i 0 -k MAC 
- -t 1.043093047 -s 6 -d 3 -p tcp -e 98 -c 2 -a 0 -i 0 -k MAC
h -t 1.043093047 -s 6 -d 3 -p tcp -e 98 -c 2 -a 0 -i 0 -k MAC
r -t 1.043877777 -s 3 -d 3 -p tcp -e 40 -c 2 -a 0 -i 0 -k MAC
+ -t 1.043887777 -s 3 -d -1 -p ACK -e 38 -c 2 -a 0 -i 0 -k MAC 
- -t 1.043887777 -s 3 -d -1 -p ACK -e 38 -c 2 -a 0 -i 0 -k MAC
h -t 1.043887777 -s 3 -d -1 -p ACK -e 38 -c 2 -a 0 -i 0 -k MAC
+ -t 1.043902777 -s 3 -d 4 -p tcp -e 40 -c 2 -a 0 -i 0 -k RTR 
- -t 1.043902777 -s 3 -d 4 -p tcp -e 40 -c 2 -a 0 -i 0 -k RTR
h -t 1.043902777 -s 3 -d 4 -p tcp -e 40 -c 2 -a 0 -i 0 -k RTR
r -t 1.044192506 -s 6 -d -1 -p ACK -e 38 -c 2 -a 0 -i 0 -k MAC
+ -t 1.044581777 -s 3 -d -1 -p RTS -e 44 -c 2 -a 0 -i 0 -k MAC 
- -t 1.044581777 -s 3 -d -1 -p RTS -e 44 -c 2 -a 0 -i 0 -k MAC
h -t 1.044581777 -s 3 -d -1 -p RTS -e 44 -c 2 -a 0 -i 0 -k MAC
r -t 1.044934307 -s 4 -d -1 -p RTS -e 44 -c 2 -a 0 -i 0 -k MAC
+ -t 1.044944307 -s 4 -d -1 -p CTS -e 38 -c 2 -a 0 -i 0 -k MAC 
- -t 1.044944307 -s 4 -d -1 -p CTS -e 38 -c 2 -a 0 -i 0 -k MAC
h -t 1.044944307 -s 4 -d -1 -p CTS -e 38 -c 2 -a 0 -i 0 -k MAC
r -t 1.045248838 -s 3 -d -1 -p CTS -e 38 -c 2 -a 0 -i 0 -k MAC
+ -t 1.045258838 -s 3 -d 4 -p tcp -e 98 -c 2 -a 0 -i 0 -k MAC 
- -t 1.045258838 -s 3 -d 4 -p tcp -e 98 -c 2 -a 0 -i 0 -k MAC
h -t 1.045258838 -s 3 -d 4 -p tcp -e 98 -c 2 -a 0 -i 0 -k MAC
r -t 1.046043368 -s 4 -d 4 -p tcp -e 40 -c 2 -a 0 -i 0 -k MAC
+ -t 1.046053368 -s 4 -d -1 -p ACK -e 38 -c 2 -a 0 -i 0 -k MAC 
- -t 1.046053368 -s 4 -d -1 -p ACK -e 38 -c 2 -a 0 -i 0 -k MAC
h -t 1.046053368 -s 4 -d -1 -p ACK -e 38 -c 2 -a 0 -i 0 -k MAC
r -t 1.046068368 -s 4 -d 4 -p tcp -e 40 -c 2 -a 0 -i 0 -k AGT
+ -t 1.046068368 -s 4 -d -1 -p ack -e 40 -c 2 -a 0 -i 1 -k AGT 
- -t 1.046068368 -s 4 -d -1 -p ack -e 40 -c 2 -a 0 -i 1 -k AGT
h -t 1.046068368 -s 4 -d -1 -p ack -e 40 -c 2 -a 0 -i 1 -k AGT
+ -t 1.046068368 -s 4 -d 3 -p ack -e 40 -c 2 -a 0 -i 1 -k RTR 
- -t 1.046068368 -s 4 -d 3 -p ack -e 40 -c 2 -a 0 -i 1 -k RTR
h -t 1.046068368 -s 4 -d 3 -p ack -e 40 -c 2 -a 0 -i 1 -k RTR
r -t 1.046357899 -s 3 -d -1 -p ACK -e 38 -c 2 -a 0 -i 0 -k MAC
+ -t 1.046687368 -s 4 -d -1 -p RTS -e 44 -c 2 -a 0 -i 0 -k MAC 
- -t 1.046687368 -s 4 -d -1 -p RTS -e 44 -c 2 -a 0 -i 0 -k MAC
h -t 1.046687368 -s 4 -d -1 -p RTS -e 44 -c 2 -a 0 -i 0 -k MAC
r -t 1.047039899 -s 3 -d -1 -p RTS -e 44 -c 2 -a 0 -i 0 -k MAC
+ -t 1.047049899 -s 3 -d -1 -p CTS -e 38 -c 2 -a 0 -i 0 -k MAC 
- -t 1.047049899 -s 3 -d -1 -p CTS -e 38 -c 2 -a 0 -i 0 -k MAC
h -t 1.047049899 -s 3 -d -1 -p CTS -e 38 -c 2 -a 0 -i 0 -k MAC
r -t 1.047354429 -s 4 -d -1 -p CTS -e 38 -c 2 -a 0 -i 0 -k MAC
+ -t 1.047364429 -s 4 -d 3 -p ack -e 98 -c 2 -a 0 -i 1 -k MAC 
- -t 1.047364429 -s 4 -d 3 -p ack -e 98 -c 2 -a 0 -i 1 -k MAC
h -t 1.047364429 -s 4 -d 3 -p ack -e 98 -c 2 -a 0 -i 1 -k MAC
r -t 1.048148960 -s 3 -d 3 -p ack -e 40 -c 2 -a 0 -i 1 -k MAC
+ -t 1.048158960 -s 3 -d -1 -p ACK -e 38 -c 2 -a 0 -i 0 -k MAC 
- -t 1.048158960 -s 3 -d -1 -p ACK -e 38 -c 2 -a 0 -i 0 -k MAC
h -t 1.048158960 -s 3 -d -1 -p ACK -e 38 -c 2 -a 0 -i 0 -k MAC
+ -t 1.048173960 -s 3 -d 6 -p ack -e 40 -c 2 -a 0 -i 1 -k RTR 
- -t 1.048173960 -s 3 -d 6 -p ack -e 40 -c 2 -a 0 -i 1 -k RTR
h -t 1.048173960 -s 3 -d 6 -p ack -e 40 -c 2 -a 0 -i 1 -k RTR
r -t 1.048463490 -s 4 -d -1 -p ACK -e 38 -c 2 -a 0 -i 0 -k MAC
+ -t 1.048792960 -s 3 -d -1 -p RTS -e 44 -c 2 -a 0 -i 0 -k MAC 
- -t 1.048792960 -s 3 -d -1 -p RTS -e 44 -c 2 -a 0 -i 0 -k MAC
h -t 1.048792960 -s 3 -d -1 -p RTS -e 44 -c 2 -a 0 -i 0 -k MAC
r -t 1.049145689 -s 6 -d -1 -p RTS -e 44 -c 2 -a 0 -i 0 -k MAC
+ -t 1.049155689 -s 6 -d -1 -p CTS -e 38 -c 2 -a 0 -i 0 -k MAC 
- -t 1.049155689 -s 6 -d -1 -p CTS -e 38 -c 2 -a 0 -i 0 -k MAC
h -t 1.049155689 -s 6 -d -1 -p CTS -e 38 -c 2 -a 0 -i 0 -k MAC
r -t 1.049460419 -s 3 -d -1 -p CTS -e 38 -c 2 -a 0 -i 0 -k MAC
+ -t 1.049470419 -s 3 -d 6 -p ack -e 98 -c 2 -a 0 -i 1 -k MAC 
- -t 1.049470419 -s 3 -d 6 -p ack -e 98 -c 2 -a 0 -i 1 -k MAC
h -t 1.049470419 -s 3 -d 6 -p ack -e 98 -c 2 -a 0 -i 1 -k MAC
r -t 1.050255148 -s 6 -d 6 -p ack -e 40 -c 2 -a 0 -i 1 -k MAC
+ -t 1.050265148 -s 6 -d -1 -p ACK -e 38 -c 2 -a 0 -i 0 -k MAC 
- -t 1.050265148 -s 6 -d -1 -p ACK -e 38 -c 2 -a 0 -i 0 -k MAC
h -t 1.050265148 -s 6 -d -1 -p ACK -e 38 -c 2 -a 0 -i 0 -k MAC
+ -t 1.050280148 -s 6 -d 0 -p ack -e 40 -c 2 -a 0 -i 1 -k RTR 
- -t 1.050280148 -s 6 -d 0 -p ack -e 40 -c 2 -a 0 -i 1 -k RTR
h -t 1.050280148 -s 6 -d 0 -p ack -e 40 -c 2 -a 0 -i 1 -k RTR
r -t 1.050569878 -s 3 -d -1 -p ACK -e 38 -c 2 -a 0 -i 0 -k MAC
+ -t 1.050619148 -s 6 -d -1 -p RTS -e 44 -c 2 -a 0 -i 0 -k MAC 
- -t 1.050619148 -s 6 -d -1 -p RTS -e 44 -c 2 -a 0 -i 0 -k MAC
h -t 1.050619148 -s 6 -d -1 -p RTS -e 44 -c 2 -a 0 -i 0 -k MAC
r -t 1.050971952 -s 0 -d -1 -p RTS -e 44 -c 2 -a 0 -i 0 -k MAC
+ -t 1.050981952 -s 0 -d -1 -p CTS -e 38 -c 2 -a 0 -i 0 -k MAC 
- -t 1.050981952 -s 0 -d -1 -p CTS -e 38 -c 2 -a 0 -i 0 -k MAC
h -t 1.050981952 -s 0 -d -1 -p CTS -e 38 -c 2 -a 0 -i 0 -k MAC
r -t 1.051286756 -s 6 -d -1 -p CTS -e 38 -c 2 -a 0 -i 0 -k MAC
+ -t 1.051296756 -s 6 -d 0 -p ack -e 98 -c 2 -a 0 -i 1 -k MAC 
- -t 1.051296756 -s 6 -d 0 -p ack -e 98 -c 2 -a 0 -i 1 -k MAC
h -t 1.051296756 -s 6 -d 0 -p ack -e 98 -c 2 -a 0 -i 1 -k MAC
r -t 1.052081559 -s 0 -d 0 -p ack -e 40 -c 2 -a 0 -i 1 -k MAC
+ -t 1.052091559 -s 0 -d -1 -p ACK -e 38 -c 2 -a 0 -i 0 -k MAC 
- -t 1.052091559 -s 0 -d -1 -p ACK -e 38 -c 2 -a 0 -i 0 -k MAC
h -t 1.052091559 -s 0 -d -1 -p ACK -e 38 -c 2 -a 0 -i 0 -k MAC
+ -t 1.052106559 -s 0 -d 1 -p ack -e 40 -c 2 -a 0 -i 1 -k RTR 
- -t 1.052106559 -s 0 -d 1 -p ack -e 40 -c 2 -a 0 -i 1 -k RTR
h -t 1.052106559 -s 0 -d 1 -p ack -e 40 -c 2 -a 0 -i 1 -k RTR
r -t 1.052396363 -s 6 -d -1 -p ACK -e 38 -c 2 -a 0 -i 0 -k MAC
+ -t 1.052525559 -s 0 -d -1 -p RTS -e 44 -c 2 -a 0 -i 0 -k MAC 
- -t 1.052525559 -s 0 -d -1 -p RTS -e 44 -c 2 -a 0 -i 0 -k MAC
h -t 1.052525559 -s 0 -d -1 -p RTS -e 44 -c 2 -a 0 -i 0 -k MAC
r -t 1.052878262 -s 1 -d -1 -p RTS -e 44 -c 2 -a 0 -i 0 -k MAC
+ -t 1.052888262 -s 1 -d -1 -p CTS -e 38 -c 2 -a 0 -i 0 -k MAC 
- -t 1.052888262 -s 1 -d -1 -p CTS -e 38 -c 2 -a 0 -i 0 -k MAC
h -t 1.052888262 -s 1 -d -1 -p CTS -e 38 -c 2 -a 0 -i 0 -k MAC
r -t 1.053192965 -s 0 -d -1 -p CTS -e 38 -c 2 -a 0 -i 0 -k MAC
+ -t 1.053202965 -s 0 -d 1 -p ack -e 98 -c 2 -a 0 -i 1 -k MAC 
- -t 1.053202965 -s 0 -d 1 -p ack -e 98 -c 2 -a 0 -i 1 -k MAC
h -t 1.053202965 -s 0 -d 1 -p ack -e 98 -c 2 -a 0 -i 1 -k MAC
r -t 1.053987669 -s 1 -d 1 -p ack -e 40 -c 2 -a 0 -i 1 -k MAC
+ -t 1.053997669 -s 1 -d -1 -p ACK -e 38 -c 2 -a 0 -i 0 -k MAC 
- -t 1.053997669 -s 1 -d -1 -p ACK -e 38 -c 2 -a 0 -i 0 -k MAC
h -t 1.053997669 -s 1 -d -1 -p ACK -e 38 -c 2 -a 0 -i 0 -k MAC
r -t 1.054012669 -s 1 -d 1 -p ack -e 40 -c 2 -a 0 -i 1 -k AGT
+ -t 1.054012669 -s 1 -d -1 -p tcp -e 1540 -c 2 -a 0 -i 2 -k AGT 
- -t 1.054012669 -s 1 -d -1 -p tcp -e 1540 -c 2 -a 0 -i 2 -k AGT
h -t 1.054012669 -s 1 -d -1 -p tcp -e 1540 -c 2 -a 0 -i 2 -k AGT
+ -t 1.054012669 -s 1 -d -1 -p tcp -e 1540 -c 2 -a 0 -i 3 -k AGT 
- -t 1.054012669 -s 1 -d -1 -p tcp -e 1540 -c 2 -a 0 -i 3 -k AGT
h -t 1.054012669 -s 1 -d -1 -p tcp -e 1540 -c 2 -a 0 -i 3 -k AGT
+ -t 1.054012669 -s 1 -d 0 -p tcp -e 1540 -c 2 -a 0 -i 2 -k RTR 
- -t 1.054012669 -s 1 -d 0 -p tcp -e 1540 -c 2 -a 0 -i 2 -k RTR
h -t 1.054012669 -s 1 -d 0 -p tcp -e 1540 -c 2 -a 0 -i 2 -k RTR
+ -t 1.054012669 -s 1 -d 0 -p tcp -e 1540 -c 2 -a 0 -i 3 -k RTR 
- -t 1.054012669 -s 1 -d 0 -p tcp -e 1540 -c 2 -a 0 -i 3 -k RTR
h -t 1.054012669 -s 1 -d 0 -p tcp -e 1540 -c 2 -a 0 -i 3 -k RTR
r -t 1.054302372 -s 0 -d -1 -p ACK -e 38 -c 2 -a 0 -i 0 -k MAC
+ -t 1.054731669 -s 1 -d -1 -p RTS -e 44 -c 2 -a 0 -i 0 -k MAC 
- -t 1.054731669 -s 1 -d -1 -p RTS -e 44 -c 2 -a 0 -i 0 -k MAC
h -t 1.054731669 -s 1 -d -1 -p RTS -e 44 -c 2 -a 0 -i 0 -k MAC
r -t 1.055084372 -s 0 -d -1 -p RTS -e 44 -c 2 -a 0 -i 0 -k MAC
+ -t 1.055094372 -s 0 -d -1 -p CTS -e 38 -c 2 -a 0 -i 0 -k MAC 
- -t 1.055094372 -s 0 -d -1 -p CTS -e 38 -c 2 -a 0 -i 0 -k MAC
h -t 1.055094372 -s 0 -d -1 -p CTS -e 38 -c 2 -a 0 -i 0 -k MAC
r -t 1.055399075 -s 1 -d -1 -p CTS -e 38 -c 2 -a 0 -i 0 -k MAC
+ -t 1.055409075 -s 1 -d 0 -p tcp -e 1598 -c 2 -a 0 -i 2 -k MAC 
- -t 1.055409075 -s 1 -d 0 -p tcp -e 1598 -c 2 -a 0 -i 2 -k MAC
h -t 1.055409075 -s 1 -d 0 -p tcp -e 1598 -c 2 -a 0 -i 2 -k MAC
r -t 1.068193778 -s 0 -d 0 -p tcp -e 1540 -c 2 -a 0 -i 2 -k MAC
+ -t 1.068203778 -s 0 -d -1 -p ACK -e 38 -c 2 -a 0 -i 0 -k MAC 
- -t 1.068203778 -s 0 -d -1 -p ACK -e 38 -c 2 -a 0 -i 0 -k MAC
h -t 1.068203778 -s 0 -d -1 -p ACK -e 38 -c 2 -a 0 -i 0 -k MAC
+ -t 1.068218778 -s 0 -d 6 -p tcp -e 1540 -c 2 -a 0 -i 2 -k RTR 
- -t 1.068218778 -s 0 -d 6 -p tcp -e 1540 -c 2 -a 0 -i 2 -k RTR
h -t 1.068218778 -s 0 -d 6 -p tcp -e 1540 -c 2 -a 0 -i 2 -k RTR
r -t 1.068508481 -s 1 -d -1 -p ACK -e 38 -c 2 -a 0 -i 0 -k MAC
+ -t 1.068638481 -s 1 -d -1 -p RTS -e 44 -c 2 -a 0 -i 0 -k MAC 
- -t 1.068638481 -s 1 -d -1 -p RTS -e 44 -c 2 -a 0 -i 0 -k MAC
h -t 1.068638481 -s 1 -d -1 -p RTS -e 44 -c 2 -a 0 -i 0 -k MAC
r -t 1.068991184 -s 0 -d -1 -p RTS -e 44 -c 2 -a 0 -i 0 -k MAC
+ -t 1.069001184 -s 0 -d -1 -p CTS -e 38 -c 2 -a 0 -i 0 -k MAC 
- -t 1.069001184 -s 0 -d -1 -p CTS -e 38 -c 2 -a 0 -i 0 -k MAC
h -t 1.069001184 -s 0 -d -1 -p CTS -e 38 -c 2 -a 0 -i 0 -k MAC
r -t 1.069305888 -s 1 -d -1 -p CTS -e 38 -c 2 -a 0 -i 0 -k MAC
+ -t 1.069315888 -s 1 -d 0 -p tcp -e 1598 -c 2 -a 0 -i 3 -k MAC 
- -t 1.069315888 -s 1 -d 0 -p tcp -e 1598 -c 2 -a 0 -i 3 -k MAC
h -t 1.069315888 -s 1 -d 0 -p tcp -e 1598 -c 2 -a 0 -i 3 -k MAC
r -t 1.082100591 -s 0 -d 0 -p tcp -e 1540 -c 2 -a 0 -i 3 -k MAC
+ -t 1.082110591 -s 0 -d -1 -p ACK -e 38 -c 2 -a 0 -i 0 -k MAC 
- -t 1.082110591 -s 0 -d -1 -p ACK -e 38 -c 2 -a 0 -i 0 -k MAC
h -t 1.082110591 -s 0 -d -1 -p ACK -e 38 -c 2 -a 0 -i 0 -k MAC
+ -t 1.082125591 -s 0 -d 6 -p tcp -e 1540 -c 2 -a 0 -i 3 -k RTR 
- -t 1.082125591 -s 0 -d 6 -p tcp -e 1540 -c 2 -a 0 -i 3 -k RTR
h -t 1.082125591 -s 0 -d 6 -p tcp -e 1540 -c 2 -a 0 -i 3 -k RTR
r -t 1.082415294 -s 1 -d -1 -p ACK -e 38 -c 2 -a 0 -i 0 -k MAC
+ -t 1.082604591 -s 0 -d -1 -p RTS -e 44 -c 2 -a 0 -i 0 -k MAC 
- -t 1.082604591 -s 0 -d -1 -p RTS -e 44 -c 2 -a 0 -i 0 -k MAC
h -t 1.082604591 -s 0 -d -1 -p RTS -e 44 -c 2 -a 0 -i 0 -k MAC
r -t 1.082957394 -s 6 -d -1 -p RTS -e 44 -c 2 -a 0 -i 0 -k MAC
+ -t 1.082967394 -s 6 -d -1 -p CTS -e 38 -c 2 -a 0 -i 0 -k MAC 
- -t 1.082967394 -s 6 -d -1 -p CTS -e 38 -c 2 -a 0 -i 0 -k MAC
h -t 1.082967394 -s 6 -d -1 -p CTS -e 38 -c 2 -a 0 -i 0 -k MAC
r -t 1.083272198 -s 0 -d -1 -p CTS -e 38 -c 2 -a 0 -i 0 -k MAC
+ -t 1.083282198 -s 0 -d 6 -p tcp -e 1598 -c 2 -a 0 -i 2 -k MAC 
- -t 1.083282198 -s 0 -d 6 -p tcp -e 1598 -c 2 -a 0 -i 2 -k MAC
h -t 1.083282198 -s 0 -d 6 -p tcp -e 1598 -c 2 -a 0 -i 2 -k MAC
r -t 1.096067002 -s 6 -d 6 -p tcp -e 1540 -c 2 -a 0 -i 2 -k MAC
+ -t 1.096077002 -s 6 -d -1 -p ACK -e 38 -c 2 -a 0 -i 0 -k MAC 
- -t 1.096077002 -s 6 -d -1 -p ACK -e 38 -c 2 -a 0 -i 0 -k MAC
h -t 1.096077002 -s 6 -d -1 -p ACK -e 38 -c 2 -a 0 -i 0 -k MAC
+ -t 1.096092002 -s 6 -d 3 -p tcp -e 1540 -c 2 -a 0 -i 2 -k RTR 
- -t 1.096092002 -s 6 -d 3 -p tcp -e 1540 -c 2 -a 0 -i 2 -k RTR
h -t 1.096092002 -s 6 -d 3 -p tcp -e 1540 -c 2 -a 0 -i 2 -k RTR
r -t 1.096381805 -s 0 -d -1 -p ACK -e 38 -c 2 -a 0 -i 0 -k MAC
+ -t 1.096431805 -s 0 -d -1 -p RTS -e 44 -c 2 -a 0 -i 0 -k MAC 
- -t 1.096431805 -s 0 -d -1 -p RTS -e 44 -c 2 -a 0 -i 0 -k MAC
h -t 1.096431805 -s 0 -d -1 -p RTS -e 44 -c 2 -a 0 -i 0 -k MAC
r -t 1.096784609 -s 6 -d -1 -p RTS -e 44 -c 2 -a 0 -i 0 -k MAC
+ -t 1.096794609 -s 6 -d -1 -p CTS -e 38 -c 2 -a 0 -i 0 -k MAC 
- -t 1.096794609 -s 6 -d -1 -p CTS -e 38 -c 2 -a 0 -i 0 -k MAC
h -t 1.096794609 -s 6 -d -1 -p CTS -e 38 -c 2 -a 0 -i 0 -k MAC
r -t 1.097099412 -s 0 -d -1 -p CTS -e 38 -c 2 -a 0 -i 0 -k MAC
+ -t 1.097109412 -s 0 -d 6 -p tcp -e 1598 -c 2 -a 0 -i 3 -k MAC 
- -t 1.097109412 -s 0 -d 6 -p tcp -e 1598 -c 2 -a 0 -i 3 -k MAC
h -t 1.097109412 -s 0 -d 6 -p tcp -e 1598 -c 2 -a 0 -i 3 -k MAC
r -t 1.109894216 -s 6 -d 6 -p tcp -e 1540 -c 2 -a 0 -i 3 -k MAC
+ -t 1.109904216 -s 6 -d -1 -p ACK -e 38 -c 2 -a 0 -i 0 -k MAC 
- -t 1.109904216 -s 6 -d -1 -p ACK -e 38 -c 2 -a 0 -i 0 -k MAC
h -t 1.109904216 -s 6 -d -1 -p ACK -e 38 -c 2 -a 0 -i 0 -k MAC
+ -t 1.109919216 -s 6 -d 3 -p tcp -e 1540 -c 2 -a 0 -i 3 -k RTR 