h 0.1 0 6 tcp 40 ------- 0 0.0 3.0 0 0
+ 0.11 0 6 tcp 40 ------- 0 0.0 3.0 0 0
- 0.11 0 6 tcp 40 ------- 0 0.0 3.0 0 0
r 0.12001 6 3 tcp 40 ------- 0 0.0 3.0 0 0
h 0.12001 3 6 ack 40 ------- 0 3.0 0.0 0 1
+ 0.13001 3 6 ack 40 ------- 0 3.0 0.0 0 1
- 0.13001 3 6 ack 40 ------- 0 3.0 0.0 0 1
r 0.14002 6 0 ack 40 ------- 0 3.0 0.0 0 1
h 0.14002 0 6 tcp 1540 ------- 0 0.0 3.0 1 2
h 0.14002 0 6 tcp 1540 ------- 0 0.0 3.0 2 3
+ 0.15002 0 6 tcp 1540 ------- 0 0.0 3.0 1 2
- 0.15002 0 6 tcp 1540 ------- 0 0.0 3.0 1 2
+ 0.15002 0 6 tcp 1540 ------- 0 0.0 3.0 2 3
- 0.150146 0 6 tcp 1540 ------- 0 0.0 3.0 2 3
r 0.16015 6 3 tcp 1540 ------- 0 0.0 3.0 1 2
h 0.16015 3 6 ack 40 ------- 0 3.0 0.0 1 4
r 0.160275 6 3 tcp 1540 ------- 0 0.0 3.0 2 3
h 0.160275 3 6 ack 40 ------- 0 3.0 0.0 2 5
+ 0.17015 3 6 ack 40 ------- 0 3.0 0.0 1 4
- 0.17015 3 6 ack 40 ------- 0 3.0 0.0 1 4
+ 0.170275 3 6 ack 40 ------- 0 3.0 0.0 2 5
- 0.170275 3 6 ack 40 ------- 0 3.0 0.0 2 5
r 0.18016 6 0 ack 40 ------- 0 3.0 0.0 1 4
h 0.18016 0 6 tcp 1540 ------- 0 0.0 3.0 3 6
h 0.18016 0 6 tcp 1540 ------- 0 0.0 3.0 4 7
r 0.180285 6 0 ack 40 ------- 0 3.0 0.0 2 5
h 0.180285 0 6 tcp 1540 ------- 0 0.0 3.0 5 8
h 0.180285 0 6 tcp 1540 ------- 0 0.0 3.0 6 9
+ 0.19016 0 6 tcp 1540 ------- 0 0.0 3.0 3 6
- 0.19016 0 6 tcp 1540 ------- 0 0.0 3.0 3 6
+ 0.19016 0 6 tcp 1540 ------- 0 0.0 3.0 4 7
+ 0.190285 0 6 tcp 1540 ------- 0 0.0 3.0 5 8
+ 0.190285 0 6 tcp 1540 ------- 0 0.0 3.0 6 9
- 0.190285 0 6 tcp 1540 ------- 0 0.0 3.0 4 7
- 0.19041 0 6 tcp 1540 ------- 0 0.0 3.0 5 8
- 0.190536 0 6 tcp 1540 ------- 0 0.0 3.0 6 9
r 0.200289 6 3 tcp 1540 ------- 0 0.0 3.0 3 6
h 0.200289 3 6 ack 40 ------- 0 3.0 0.0 3 10
r 0.200414 6 3 tcp 1540 ------- 0 0.0 3.0 4 7
h 0.200414 3 6 ack 40 ------- 0 3.0 0.0 4 11
r 0.20054 6 3 tcp 1540 ------- 0 0.0 3.0 5 8
h 0.20054 3 6 ack 40 ------- 0 3.0 0.0 5 12
r 0.200665 6 3 tcp 1540 ------- 0 0.0 3.0 6 9
h 0.200665 3 6 ack 40 ------- 0 3.0 0.0 6 13
+ 0.210289 3 6 ack 40 ------- 0 3.0 0.0 3 10
- 0.210289 3 6 ack 40 ------- 0 3.0 0.0 3 10
+ 0.210414 3 6 ack 40 ------- 0 3.0 0.0 4 11
- 0.210414 3 6 ack 40 ------- 0 3.0 0.0 4 11
+ 0.21054 3 6 ack 40 ------- 0 3.0 0.0 5 12
- 0.21054 3 6 ack 40 ------- 0 3.0 0.0 5 12
+ 0.210665 3 6 ack 40 ------- 0 3.0 0.0 6 13
- 0.210665 3 6 ack 40 ------- 0 3.0 0.0 6 13
r 0.220299 6 0 ack 40 ------- 0 3.0 0.0 3 10
h 0.220299 0 6 tcp 1540 ------- 0 0.0 3.0 7 14
h 0.220299 0 6 tcp 1540 ------- 0 0.0 3.0 8 15
r 0.220424 6 0 ack 40 ------- 0 3.0 0.0 4 11
h 0.220424 0 6 tcp 1540 ------- 0 0.0 3.0 9 16
h 0.220424 0 6 tcp 1540 ------- 0 0.0 3.0 10 17
r 0.22055 6 0 ack 40 ------- 0 3.0 0.0 5 12
h 0.22055 0 6 tcp 1540 ------- 0 0.0 3.0 11 18
h 0.22055 0 6 tcp 1540 ------- 0 0.0 3.0 12 19
r 0.220675 6 0 ack 40 ------- 0 3.0 0.0 6 13
h 0.220675 0 6 tcp 1540 ------- 0 0.0 3.0 13 20
h 0.220675 0 6 tcp 1540 ------- 0 0.0 3.0 14 21
+ 0.230299 0 6 tcp 1540 ------- 0 0.0 3.0 7 14
- 0.230299 0 6 tcp 1540 ------- 0 0.0 3.0 7 14
+ 0.230299 0 6 tcp 1540 ------- 0 0.0 3.0 8 15
+ 0.230424 0 6 tcp 1540 ------- 0 0.0 3.0 9 16
+ 0.230424 0 6 tcp 1540 ------- 0 0.0 3.0 10 17
- 0.230424 0 6 tcp 1540 ------- 0 0.0 3.0 8 15
+ 0.23055 0 6 tcp 1540 ------- 0 0.0 3.0 11 18
+ 0.23055 0 6 tcp 1540 ------- 0 0.0 3.0 12 19
- 0.23055 0 6 tcp 1540 ------- 0 0.0 3.0 9 16
+ 0.230675 0 6 tcp 1540 ------- 0 0.0 3.0 13 20
+ 0.230675 0 6 tcp 1540 ------- 0 0.0 3.0 14 21
- 0.230675 0 6 tcp 1540 ------- 0 0.0 3.0 10 17
- 0.2308 0 6 tcp 1540 ------- 0 0.0 3.0 11 18
- 0.230926 0 6 tcp 1540 ------- 0 0.0 3.0 12 19
- 0.231051 0 6 tcp 1540 ------- 0 0.0 3.0 13 20
- 0.231176 0 6 tcp 1540 ------- 0 0.0 3.0 14 21
r 0.240428 6 3 tcp 1540 ------- 0 0.0 3.0 7 14
h 0.240428 3 6 ack 40 ------- 0 3.0 0.0 7 22
r 0.240554 6 3 tcp 1540 ------- 0 0.0 3.0 8 15
h 0.240554 3 6 ack 40 ------- 0 3.0 0.0 8 23
r 0.240679 6 3 tcp 1540 ------- 0 0.0 3.0 9 16
h 0.240679 3 6 ack 40 ------- 0 3.0 0.0 9 24
r 0.240804 6 3 tcp 1540 ------- 0 0.0 3.0 10 17
h 0.240804 3 6 ack 40 ------- 0 3.0 0.0 10 25
r 0.24093 6 3 tcp 1540 ------- 0 0.0 3.0 11 18
h 0.24093 3 6 ack 40 ------- 0 3.0 0.0 11 26
r 0.241055 6 3 tcp 1540 ------- 0 0.0 3.0 12 19
h 0.241055 3 6 ack 40 ------- 0 3.0 0.0 12 27
r 0.24118 6 3 tcp 1540 ------- 0 0.0 3.0 13 20
h 0.24118 3 6 ack 40 ------- 0 3.0 0.0 13 28
r 0.241305 6 3 tcp 1540 ------- 0 0.0 3.0 14 21
h 0.241305 3 6 ack 40 ------- 0 3.0 0.0 14 29
+ 0.250428 3 6 ack 40 ------- 0 3.0 0.0 7 22
- 0.250428 3 6 ack 40 ------- 0 3.0 0.0 7 22
+ 0.250554 3 6 ack 40 ------- 0 3.0 0.0 8 23
- 0.250554 3 6 ack 40 ------- 0 3.0 0.0 8 23
+ 0.250679 3 6 ack 40 ------- 0 3.0 0.0 9 24
- 0.250679 3 6 ack 40 ------- 0 3.0 0.0 9 24
+ 0.250804 3 6 ack 40 ------- 0 3.0 0.0 10 25
- 0.250804 3 6 ack 40 ------- 0 3.0 0.0 10 25
+ 0.25093 3 6 ack 40 ------- 0 3.0 0.0 11 26
- 0.25093 3 6 ack 40 ------- 0 3.0 0.0 11 26
+ 0.251055 3 6 ack 40 ------- 0 3.0 0.0 12 27
- 0.251055 3 6 ack 40 ------- 0 3.0 0.0 12 27
+ 0.25118 3 6 ack 40 ------- 0 3.0 0.0 13 28
- 0.25118 3 6 ack 40 ------- 0 3.0 0.0 13 28
+ 0.251305 3 6 ack 40 ------- 0 3.0 0.0 14 29
- 0.251305 3 6 ack 40 ------- 0 3.0 0.0 14 29
r 0.260439 6 0 ack 40 ------- 0 3.0 0.0 7 22
h 0.260439 0 6 tcp 1540 ------- 0 0.0 3.0 15 30
h 0.260439 0 6 tcp 1540 ------- 0 0.0 3.0 16 31
r 0.260564 6 0 ack 40 ------- 0 3.0 0.0 8 23
h 0.260564 0 6 tcp 1540 ------- 0 0.0 3.0 17 32
h 0.260564 0 6 tcp 1540 ------- 0 0.0 3.0 18 33
r 0.260689 6 0 ack 40 ------- 0 3.0 0.0 9 24
h 0.260689 0 6 tcp 1540 ------- 0 0.0 3.0 19 34
h 0.260689 0 6 tcp 1540 ------- 0 0.0 3.0 20 35
r 0.260814 6 0 ack 40 ------- 0 3.0 0.0 10 25
h 0.260814 0 6 tcp 1540 ------- 0 0.0 3.0 21 36
h 0.260814 0 6 tcp 1540 ------- 0 0.0 3.0 22 37
r 0.26094 6 0 ack 40 ------- 0 3.0 0.0 11 26
h 0.26094 0 6 tcp 1540 ------- 0 0.0 3.0 23 38
h 0.26094 0 6 tcp 1540 ------- 0 0.0 3.0 24 39
r 0.261065 6 0 ack 40 ------- 0 3.0 0.0 12 27
h 0.261065 0 6 tcp 1540 ------- 0 0.0 3.0 25 40
h 0.261065 0 6 tcp 1540 ------- 0 0.0 3.0 26 41
r 0.26119 6 0 ack 40 ------- 0 3.0 0.0 13 28
h 0.26119 0 6 tcp 1540 ------- 0 0.0 3.0 27 42
h 0.26119 0 6 tcp 1540 ------- 0 0.0 3.0 28 43
r 0.261316 6 0 ack 40 ------- 0 3.0 0.0 14 29
h 0.261316 0 6 tcp 1540 ------- 0 0.0 3.0 29 44
h 0.261316 0 6 tcp 1540 ------- 0 0.0 3.0 30 45
+ 0.270439 0 6 tcp 1540 ------- 0 0.0 3.0 15 30
- 0.270439 0 6 tcp 1540 ------- 0 0.0 3.0 15 30
+ 0.270439 0 6 tcp 1540 ------- 0 0.0 3.0 16 31
+ 0.270564 0 6 tcp 1540 ------- 0 0.0 3.0 17 32
+ 0.270564 0 6 tcp 1540 ------- 0 0.0 3.0 18 33
- 0.270564 0 6 tcp 1540 ------- 0 0.0 3.0 16 31
+ 0.270689 0 6 tcp 1540 ------- 0 0.0 3.0 19 34
+ 0.270689 0 6 tcp 1540 ------- 0 0.0 3.0 20 35
- 0.270689 0 6 tcp 1540 ------- 0 0.0 3.0 17 32
+ 0.270814 0 6 tcp 1540 ------- 0 0.0 3.0 21 36
+ 0.270814 0 6 tcp 1540 ------- 0 0.0 3.0 22 37
- 0.270814 0 6 tcp 1540 ------- 0 0.0 3.0 18 33
+ 0.27094 0 6 tcp 1540 ------- 0 0.0 3.0 23 38
+ 0.27094 0 6 tcp 1540 ------- 0 0.0 3.0 24 39
- 0.27094 0 6 tcp 1540 ------- 0 0.0 3.0 19 34
+ 0.271065 0 6 tcp 1540 ------- 0 0.0 3.0 25 40
+ 0.271065 0 6 tcp 1540 ------- 0 0.0 3.0 26 41
- 0.271065 0 6 tcp 1540 ------- 0 0.0 3.0 20 35
+ 0.27119 0 6 tcp 1540 ------- 0 0.0 3.0 27 42
+ 0.27119 0 6 tcp 1540 ------- 0 0.0 3.0 28 43
- 0.27119 0 6 tcp 1540 ------- 0 0.0 3.0 21 36
+ 0.271316 0 6 tcp 1540 ------- 0 0.0 3.0 29 44
+ 0.271316 0 6 tcp 1540 ------- 0 0.0 3.0 30 45
- 0.271316 0 6 tcp 1540 ------- 0 0.0 3.0 22 37
- 0.271441 0 6 tcp 1540 ------- 0 0.0 3.0 23 38
- 0.271566 0 6 tcp 1540 ------- 0 0.0 3.0 24 39
- 0.271691 0 6 tcp 1540 ------- 0 0.0 3.0 25 40
- 0.271817 0 6 tcp 1540 ------- 0 0.0 3.0 26 41
- 0.271942 0 6 tcp 1540 ------- 0 0.0 3.0 27 42
- 0.272067 0 6 tcp 1540 ------- 0 0.0 3.0 28 43
- 0.272192 0 6 tcp 1540 ------- 0 0.0 3.0 29 44
- 0.272318 0 6 tcp 1540 ------- 0 0.0 3.0 30 45
r 0.280568 6 3 tcp 1540 ------- 0 0.0 3.0 15 30
h 0.280568 3 6 ack 40 ------- 0 3.0 0.0 15 46
r 0.280693 6 3 tcp 1540 ------- 0 0.0 3.0 16 31
h 0.280693 3 6 ack 40 ------- 0 3.0 0.0 16 47
r 0.280818 6 3 tcp 1540 ------- 0 0.0 3.0 17 32
h 0.280818 3 6 ack 40 ------- 0 3.0 0.0 17 48
r 0.280944 6 3 tcp 1540 ------- 0 0.0 3.0 18 33
h 0.280944 3 6 ack 40 ------- 0 3.0 0.0 18 49
r 0.281069 6 3 tcp 1540 ------- 0 0.0 3.0 19 34
h 0.281069 3 6 ack 40 ------- 0 3.0 0.0 19 50
r 0.281194 6 3 tcp 1540 ------- 0 0.0 3.0 20 35
h 0.281194 3 6 ack 40 ------- 0 3.0 0.0 20 51
r 0.28132 6 3 tcp 1540 ------- 0 0.0 3.0 21 36
h 0.28132 3 6 ack 40 ------- 0 3.0 0.0 21 52
r 0.281445 6 3 tcp 1540 ------- 0 0.0 3.0 22 37
h 0.281445 3 6 ack 40 ------- 0 3.0 0.0 22 53
r 0.28157 6 3 tcp 1540 ------- 0 0.0 3.0 23 38
h 0.28157 3 6 ack 40 ------- 0 3.0 0.0 23 54
r 0.281695 6 3 tcp 1540 ------- 0 0.0 3.0 24 39
h 0.281695 3 6 ack 40 ------- 0 3.0 0.0 24 55
r 0.281821 6 3 tcp 1540 ------- 0 0.0 3.0 25 40
h 0.281821 3 6 ack 40 ------- 0 3.0 0.0 25 56
r 0.281946 6 3 tcp 1540 ------- 0 0.0 3.0 26 41
h 0.281946 3 6 ack 40 ------- 0 3.0 0.0 26 57
r 0.282071 6 3 tcp 1540 ------- 0 0.0 3.0 27 42
h 0.282071 3 6 ack 40 ------- 0 3.0 0.0 27 58
r 0.282197 6 3 tcp 1540 ------- 0 0.0 3.0 28 43
h 0.282197 3 6 ack 40 ------- 0 3.0 0.0 28 59
r 0.282322 6 3 tcp 1540 ------- 0 0.0 3.0 29 44
h 0.282322 3 6 ack 40 ------- 0 3.0 0.0 29 60
r 0.282447 6 3 tcp 1540 ------- 0 0.0 3.0 30 45
h 0.282447 3 6 ack 40 ------- 0 3.0 0.0 30 61
+ 0.290568 3 6 ack 40 ------- 0 3.0 0.0 15 46
- 0.290568 3 6 ack 40 ------- 0 3.0 0.0 15 46
+ 0.290693 3 6 ack 40 ------- 0 3.0 0.0 16 47
- 0.290693 3 6 ack 40 ------- 0 3.0 0.0 16 47
+ 0.290818 3 6 ack 40 ------- 0 3.0 0.0 17 48
- 0.290818 3 6 ack 40 ------- 0 3.0 0.0 17 48
+ 0.290944 3 6 ack 40 ------- 0 3.0 0.0 18 49
- 0.290944 3 6 ack 40 ------- 0 3.0 0.0 18 49
+ 0.291069 3 6 ack 40 ------- 0 3.0 0.0 19 50
- 0.291069 3 6 ack 40 ------- 0 3.0 0.0 19 50
+ 0.291194 3 6 ack 40 ------- 0 3.0 0.0 20 51
- 0.291194 3 6 ack 40 ------- 0 3.0 0.0 20 51
+ 0.29132 3 6 ack 40 ------- 0 3.0 0.0 21 52
- 0.29132 3 6 ack 40 ------- 0 3.0 0.0 21 52
+ 0.291445 3 6 ack 40 ------- 0 3.0 0.0 22 53
- 0.291445 3 6 ack 40 ------- 0 3.0 0.0 22 53
+ 0.29157 3 6 ack 40 ------- 0 3.0 0.0 23 54
- 0.29157 3 6 ack 40 ------- 0 3.0 0.0 23 54
+ 0.291695 3 6 ack 40 ------- 0 3.0 0.0 24 55
- 0.291695 3 6 ack 40 ------- 0 3.0 0.0 24 55
+ 0.291821 3 6 ack 40 ------- 0 3.0 0.0 25 56
- 0.291821 3 6 ack 40 ------- 0 3.0 0.0 25 56
+ 0.291946 3 6 ack 40 ------- 0 3.0 0.0 26 57
- 0.291946 3 6 ack 40 ------- 0 3.0 0.0 26 57
+ 0.292071 3 6 ack 40 ------- 0 3.0 0.0 27 58
- 0.292071 3 6 ack 40 ------- 0 3.0 0.0 27 58
+ 0.292197 3 6 ack 40 ------- 0 3.0 0.0 28 59
- 0.292197 3 6 ack 40 ------- 0 3.0 0.0 28 59
+ 0.292322 3 6 ack 40 ------- 0 3.0 0.0 29 60
- 0.292322 3 6 ack 40 ------- 0 3.0 0.0 29 60
+ 0.292447 3 6 ack 40 ------- 0 3.0 0.0 30 61
- 0.292447 3 6 ack 40 ------- 0 3.0 0.0 30 61
r 0.300578 6 0 ack 40 ------- 0 3.0 0.0 15 46
r 0.300703 6 0 ack 40 ------- 0 3.0 0.0 16 47
r 0.300829 6 0 ack 40 ------- 0 3.0 0.0 17 48
r 0.300954 6 0 ack 40 ------- 0 3.0 0.0 18 49
r 0.301079 6 0 ack 40 ------- 0 3.0 0.0 19 50
r 0.301204 6 0 ack 40 ------- 0 3.0 0.0 20 51
r 0.30133 6 0 ack 40 ------- 0 3.0 0.0 21 52
r 0.301455 6 0 ack 40 ------- 0 3.0 0.0 22 53
r 0.30158 6 0 ack 40 ------- 0 3.0 0.0 23 54
r 0.301706 6 0 ack 40 ------- 0 3.0 0.0 24 55
r 0.301831 6 0 ack 40 ------- 0 3.0 0.0 25 56
r 0.301956 6 0 ack 40 ------- 0 3.0 0.0 26 57
r 0.302081 6 0 ack 40 ------- 0 3.0 0.0 27 58
r 0.302207 6 0 ack 40 ------- 0 3.0 0.0 28 59
r 0.302332 6 0 ack 40 ------- 0 3.0 0.0 29 60
r 0.302457 6 0 ack 40 ------- 0 3.0 0.0 30 61
h 0.5 0 6 tcp 1540 ------- 0 0.0 3.0 31 62
h 0.5 0 6 tcp 1540 ------- 0 0.0 3.0 32 63
h 0.5 0 6 tcp 1540 ------- 0 0.0 3.0 33 64
h 0.5 0 6 tcp 1540 ------- 0 0.0 3.0 34 65
h 0.5 0 6 tcp 1540 ------- 0 0.0 3.0 35 66
h 0.5 0 6 tcp 1540 ------- 0 0.0 3.0 36 67
h 0.5 0 6 tcp 1540 ------- 0 0.0 3.0 37 68
h 0.5 0 6 tcp 1540 ------- 0 0.0 3.0 38 69
h 0.5 0 6 tcp 1540 ------- 0 0.0 3.0 39 70
h 0.5 0 6 tcp 1540 ------- 0 0.0 3.0 40 71
h 0.5 0 6 tcp 1540 ------- 0 0.0 3.0 41 72
h 0.5 0 6 tcp 1540 ------- 0 0.0 3.0 42 73
h 0.5 0 6 tcp 1540 ------- 0 0.0 3.0 43 74
h 0.5 0 6 tcp 1540 ------- 0 0.0 3.0 44 75
h 0.5 0 6 tcp 1540 ------- 0 0.0 3.0 45 76
h 0.5 0 6 tcp 1540 ------- 0 0.0 3.0 46 77
h 0.5 0 6 tcp 1540 ------- 0 0.0 3.0 47 78
h 0.5 0 6 tcp 1540 ------- 0 0.0 3.0 48 79
h 0.5 0 6 tcp 1540 ------- 0 0.0 3.0 49 80
h 0.5 0 6 tcp 1540 ------- 0 0.0 3.0 50 81
+ 0.51 0 6 tcp 1540 ------- 0 0.0 3.0 31 62
- 0.51 0 6 tcp 1540 ------- 0 0.0 3.0 31 62
+ 0.51 0 6 tcp 1540 ------- 0 0.0 3.0 32 63
+ 0.51 0 6 tcp 1540 ------- 0 0.0 3.0 33 64
+ 0.51 0 6 tcp 1540 ------- 0 0.0 3.0 34 65
+ 0.51 0 6 tcp 1540 ------- 0 0.0 3.0 35 66
+ 0.51 0 6 tcp 1540 ------- 0 0.0 3.0 36 67
+ 0.51 0 6 tcp 1540 ------- 0 0.0 3.0 37 68
+ 0.51 0 6 tcp 1540 ------- 0 0.0 3.0 38 69
+ 0.51 0 6 tcp 1540 ------- 0 0.0 3.0 39 70
+ 0.51 0 6 tcp 1540 ------- 0 0.0 3.0 40 71
+ 0.51 0 6 tcp 1540 ------- 0 0.0 3.0 41 72
+ 0.51 0 6 tcp 1540 ------- 0 0.0 3.0 42 73
+ 0.51 0 6 tcp 1540 ------- 0 0.0 3.0 43 74
+ 0.51 0 6 tcp 1540 ------- 0 0.0 3.0 44 75
+ 0.51 0 6 tcp 1540 ------- 0 0.0 3.0 45 76
+ 0.51 0 6 tcp 1540 ------- 0 0.0 3.0 46 77
+ 0.51 0 6 tcp 1540 ------- 0 0.0 3.0 47 78
+ 0.51 0 6 tcp 1540 ------- 0 0.0 3.0 48 79
+ 0.51 0 6 tcp 1540 ------- 0 0.0 3.0 49 80
+ 0.51 0 6 tcp 1540 ------- 0 0.0 3.0 50 81
- 0.510125 0 6 tcp 1540 ------- 0 0.0 3.0 32 63
- 0.510251 0 6 tcp 1540 ------- 0 0.0 3.0 33 64
- 0.510376 0 6 tcp 1540 ------- 0 0.0 3.0 34 65
- 0.510501 0 6 tcp 1540 ------- 0 0.0 3.0 35 66
- 0.510626 0 6 tcp 1540 ------- 0 0.0 3.0 36 67
- 0.510752 0 6 tcp 1540 ------- 0 0.0 3.0 37 68
- 0.510877 0 6 tcp 1540 ------- 0 0.0 3.0 38 69
- 0.511002 0 6 tcp 1540 ------- 0 0.0 3.0 39 70
- 0.511128 0 6 tcp 1540 ------- 0 0.0 3.0 40 71
- 0.511253 0 6 tcp 1540 ------- 0 0.0 3.0 41 72
- 0.511378 0 6 tcp 1540 ------- 0 0.0 3.0 42 73
- 0.511503 0 6 tcp 1540 ------- 0 0.0 3.0 43 74
- 0.511629 0 6 tcp 1540 ------- 0 0.0 3.0 44 75
- 0.511754 0 6 tcp 1540 ------- 0 0.0 3.0 45 76
- 0.511879 0 6 tcp 1540 ------- 0 0.0 3.0 46 77
- 0.512004 0 6 tcp 1540 ------- 0 0.0 3.0 47 78
- 0.51213 0 6 tcp 1540 ------- 0 0.0 3.0 48 79
- 0.512255 0 6 tcp 1540 ------- 0 0.0 3.0 49 80
- 0.51238 0 6 tcp 1540 ------- 0 0.0 3.0 50 81
r 0.520129 6 3 tcp 1540 ------- 0 0.0 3.0 31 62
h 0.520129 3 6 ack 40 ------- 0 3.0 0.0 31 82
r 0.520255 6 3 tcp 1540 ------- 0 0.0 3.0 32 63
h 0.520255 3 6 ack 40 ------- 0 3.0 0.0 32 83
r 0.52038 6 3 tcp 1540 ------- 0 0.0 3.0 33 64
h 0.52038 3 6 ack 40 ------- 0 3.0 0.0 33 84
r 0.520505 6 3 tcp 1540 ------- 0 0.0 3.0 34 65
h 0.520505 3 6 ack 40 ------- 0 3.0 0.0 34 85
r 0.52063 6 3 tcp 1540 ------- 0 0.0 3.0 35 66
h 0.52063 3 6 ack 40 ------- 0 3.0 0.0 35 86
r 0.520756 6 3 tcp 1540 ------- 0 0.0 3.0 36 67
h 0.520756 3 6 ack 40 ------- 0 3.0 0.0 36 87
r 0.520881 6 3 tcp 1540 ------- 0 0.0 3.0 37 68
h 0.520881 3 6 ack 40 ------- 0 3.0 0.0 37 88
r 0.521006 6 3 tcp 1540 ------- 0 0.0 3.0 38 69
h 0.521006 3 6 ack 40 ------- 0 3.0 0.0 38 89
r 0.521132 6 3 tcp 1540 ------- 0 0.0 3.0 39 70
h 0.521132 3 6 ack 40 ------- 0 3.0 0.0 39 90
r 0.521257 6 3 tcp 1540 ------- 0 0.0 3.0 40 71
h 0.521257 3 6 ack 40 ------- 0 3.0 0.0 40 91
r 0.521382 6 3 tcp 1540 ------- 0 0.0 3.0 41 72
h 0.521382 3 6 ack 40 ------- 0 3.0 0.0 41 92
r 0.521507 6 3 tcp 1540 ------- 0 0.0 3.0 42 73
h 0.521507 3 6 ack 40 ------- 0 3.0 0.0 42 93
r 0.521633 6 3 tcp 1540 ------- 0 0.0 3.0 43 74
h 0.521633 3 6 ack 40 ------- 0 3.0 0.0 43 94
r 0.521758 6 3 tcp 1540 ------- 0 0.0 3.0 44 75
h 0.521758 3 6 ack 40 ------- 0 3.0 0.0 44 95
r 0.521883 6 3 tcp 1540 ------- 0 0.0 3.0 45 76
h 0.521883 3 6 ack 40 ------- 0 3.0 0.0 45 96
r 0.522009 6 3 tcp 1540 ------- 0 0.0 3.0 46 77
h 0.522009 3 6 ack 40 ------- 0 3.0 0.0 46 97
r 0.522134 6 3 tcp 1540 ------- 0 0.0 3.0 47 78
h 0.522134 3 6 ack 40 ------- 0 3.0 0.0 47 98
r 0.522259 6 3 tcp 1540 ------- 0 0.0 3.0 48 79
h 0.522259 3 6 ack 40 ------- 0 3.0 0.0 48 99
r 0.522384 6 3 tcp 1540 ------- 0 0.0 3.0 49 80
h 0.522384 3 6 ack 40 ------- 0 3.0 0.0 49 100
r 0.52251 6 3 tcp 1540 ------- 0 0.0 3.0 50 81
h 0.52251 3 6 ack 40 ------- 0 3.0 0.0 50 101
+ 0.530129 3 6 ack 40 ------- 0 3.0 0.0 31 82
- 0.530129 3 6 ack 40 ------- 0 3.0 0.0 31 82
+ 0.530255 3 6 ack 40 ------- 0 3.0 0.0 32 83
- 0.530255 3 6 ack 40 ------- 0 3.0 0.0 32 83
+ 0.53038 3 6 ack 40 ------- 0 3.0 0.0 33 84
- 0.53038 3 6 ack 40 ------- 0 3.0 0.0 33 84
+ 0.530505 3 6 ack 40 ------- 0 3.0 0.0 34 85
- 0.530505 3 6 ack 40 ------- 0 3.0 0.0 34 85
+ 0.53063 3 6 ack 40 ------- 0 3.0 0.0 35 86
- 0.53063 3 6 ack 40 ------- 0 3.0 0.0 35 86
+ 0.530756 3 6 ack 40 ------- 0 3.0 0.0 36 87
- 0.530756 3 6 ack 40 ------- 0 3.0 0.0 36 87
+ 0.530881 3 6 ack 40 ------- 0 3.0 0.0 37 88
- 0.530881 3 6 ack 40 ------- 0 3.0 0.0 37 88
+ 0.531006 3 6 ack 40 ------- 0 3.0 0.0 38 89
- 0.531006 3 6 ack 40 ------- 0 3.0 0.0 38 89
+ 0.531132 3 6 ack 40 ------- 0 3.0 0.0 39 90
- 0.531132 3 6 ack 40 ------- 0 3.0 0.0 39 90
+ 0.531257 3 6 ack 40 ------- 0 3.0 0.0 40 91
- 0.531257 3 6 ack 40 ------- 0 3.0 0.0 40 91
+ 0.531382 3 6 ack 40 ------- 0 3.0 0.0 41 92
- 0.531382 3 6 ack 40 ------- 0 3.0 0.0 41 92
+ 0.531507 3 6 ack 40 ------- 0 3.0 0.0 42 93
- 0.531507 3 6 ack 40 ------- 0 3.0 0.0 42 93
+ 0.531633 3 6 ack 40 ------- 0 3.0 0.0 43 94
- 0.531633 3 6 ack 40 ------- 0 3.0 0.0 43 94
+ 0.531758 3 6 ack 40 ------- 0 3.0 0.0 44 95
- 0.531758 3 6 ack 40 ------- 0 3.0 0.0 44 95
+ 0.531883 3 6 ack 40 ------- 0 3.0 0.0 45 96
- 0.531883 3 6 ack 40 ------- 0 3.0 0.0 45 96
+ 0.532009 3 6 ack 40 ------- 0 3.0 0.0 46 97
- 0.532009 3 6 ack 40 ------- 0 3.0 0.0 46 97
+ 0.532134 3 6 ack 40 ------- 0 3.0 0.0 47 98
- 0.532134 3 6 ack 40 ------- 0 3.0 0.0 47 98
+ 0.532259 3 6 ack 40 ------- 0 3.0 0.0 48 99
- 0.532259 3 6 ack 40 ------- 0 3.0 0.0 48 99
+ 0.532384 3 6 ack 40 ------- 0 3.0 0.0 49 100
- 0.532384 3 6 ack 40 ------- 0 3.0 0.0 49 100
+ 0.53251 3 6 ack 40 ------- 0 3.0 0.0 50 101
- 0.53251 3 6 ack 40 ------- 0 3.0 0.0 50 101
r 0.540139 6 0 ack 40 ------- 0 3.0 0.0 31 82
h 0.540139 0 6 tcp 1540 ------- 0 0.0 3.0 51 102
r 0.540265 6 0 ack 40 ------- 0 3.0 0.0 32 83
h 0.540265 0 6 tcp 1540 ------- 0 0.0 3.0 52 103
r 0.54039 6 0 ack 40 ------- 0 3.0 0.0 33 84
h 0.54039 0 6 tcp 1540 ------- 0 0.0 3.0 53 104
r 0.540515 6 0 ack 40 ------- 0 3.0 0.0 34 85
h 0.540515 0 6 tcp 1540 ------- 0 0.0 3.0 54 105
r 0.540641 6 0 ack 40 ------- 0 3.0 0.0 35 86
h 0.540641 0 6 tcp 1540 ------- 0 0.0 3.0 55 106
r 0.540766 6 0 ack 40 ------- 0 3.0 0.0 36 87
h 0.540766 0 6 tcp 1540 ------- 0 0.0 3.0 56 107
r 0.540891 6 0 ack 40 ------- 0 3.0 0.0 37 88
h 0.540891 0 6 tcp 1540 ------- 0 0.0 3.0 57 108
r 0.541016 6 0 ack 40 ------- 0 3.0 0.0 38 89
h 0.541016 0 6 tcp 1540 ------- 0 0.0 3.0 58 109
r 0.541142 6 0 ack 40 ------- 0 3.0 0.0 39 90
h 0.541142 0 6 tcp 1540 ------- 0 0.0 3.0 59 110
r 0.541267 6 0 ack 40 ------- 0 3.0 0.0 40 91
h 0.541267 0 6 tcp 1540 ------- 0 0.0 3.0 60 111
r 0.541392 6 0 ack 40 ------- 0 3.0 0.0 41 92
h 0.541392 0 6 tcp 1540 ------- 0 0.0 3.0 61 112
r 0.541518 6 0 ack 40 ------- 0 3.0 0.0 42 93
h 0.541518 0 6 tcp 1540 ------- 0 0.0 3.0 62 113
r 0.541643 6 0 ack 40 ------- 0 3.0 0.0 43 94
h 0.541643 0 6 tcp 1540 ------- 0 0.0 3.0 63 114
r 0.541768 6 0 ack 40 ------- 0 3.0 0.0 44 95
h 0.541768 0 6 tcp 1540 ------- 0 0.0 3.0 64 115
r 0.541893 6 0 ack 40 ------- 0 3.0 0.0 45 96
h 0.541893 0 6 tcp 1540 ------- 0 0.0 3.0 65 116
r 0.542019 6 0 ack 40 ------- 0 3.0 0.0 46 97
h 0.542019 0 6 tcp 1540 ------- 0 0.0 3.0 66 117
r 0.542144 6 0 ack 40 ------- 0 3.0 0.0 47 98
h 0.542144 0 6 tcp 1540 ------- 0 0.0 3.0 67 118
r 0.542269 6 0 ack 40 ------- 0 3.0 0.0 48 99
h 0.542269 0 6 tcp 1540 ------- 0 0.0 3.0 68 119
r 0.542394 6 0 ack 40 ------- 0 3.0 0.0 49 100
h 0.542394 0 6 tcp 1540 ------- 0 0.0 3.0 69 120
r 0.54252 6 0 ack 40 ------- 0 3.0 0.0 50 101
h 0.54252 0 6 tcp 1540 ------- 0 0.0 3.0 70 121
+ 0.550139 0 6 tcp 1540 ------- 0 0.0 3.0 51 102
- 0.550139 0 6 tcp 1540 ------- 0 0.0 3.0 51 102
+ 0.550265 0 6 tcp 1540 ------- 0 0.0 3.0 52 103
- 0.550265 0 6 tcp 1540 ------- 0 0.0 3.0 52 103
+ 0.55039 0 6 tcp 1540 ------- 0 0.0 3.0 53 104
- 0.55039 0 6 tcp 1540 ------- 0 0.0 3.0 53 104
+ 0.550515 0 6 tcp 1540 ------- 0 0.0 3.0 54 105
- 0.550515 0 6 tcp 1540 ------- 0 0.0 3.0 54 105
+ 0.550641 0 6 tcp 1540 ------- 0 0.0 3.0 55 106
- 0.550641 0 6 tcp 1540 ------- 0 0.0 3.0 55 106
+ 0.550766 0 6 tcp 1540 ------- 0 0.0 3.0 56 107
- 0.550766 0 6 tcp 1540 ------- 0 0.0 3.0 56 107
+ 0.550891 0 6 tcp 1540 ------- 0 0.0 3.0 57 108
- 0.550891 0 6 tcp 1540 ------- 0 0.0 3.0 57 108
+ 0.551016 0 6 tcp 1540 ------- 0 0.0 3.0 58 109
- 0.551016 0 6 tcp 1540 ------- 0 0.0 3.0 58 109
+ 0.551142 0 6 tcp 1540 ------- 0 0.0 3.0 59 110
- 0.551142 0 6 tcp 1540 ------- 0 0.0 3.0 59 110
+ 0.551267 0 6 tcp 1540 ------- 0 0.0 3.0 60 111
- 0.551267 0 6 tcp 1540 ------- 0 0.0 3.0 60 111
+ 0.551392 0 6 tcp 1540 ------- 0 0.0 3.0 61 112
- 0.551392 0 6 tcp 1540 ------- 0 0.0 3.0 61 112
+ 0.551518 0 6 tcp 1540 ------- 0 0.0 3.0 62 113
- 0.551518 0 6 tcp 1540 ------- 0 0.0 3.0 62 113
+ 0.551643 0 6 tcp 1540 ------- 0 0.0 3.0 63 114
- 0.551643 0 6 tcp 1540 ------- 0 0.0 3.0 63 114
+ 0.551768 0 6 tcp 1540 ------- 0 0.0 3.0 64 115
- 0.551768 0 6 tcp 1540 ------- 0 0.0 3.0 64 115
+ 0.551893 0 6 tcp 1540 ------- 0 0.0 3.0 65 116
- 0.551893 0 6 tcp 1540 ------- 0 0.0 3.0 65 116
+ 0.552019 0 6 tcp 1540 ------- 0 0.0 3.0 66 117
- 0.552019 0 6 tcp 1540 ------- 0 0.0 3.0 66 117
+ 0.552144 0 6 tcp 1540 ------- 0 0.0 3.0 67 118
- 0.552144 0 6 tcp 1540 ------- 0 0.0 3.0 67 118
+ 0.552269 0 6 tcp 1540 ------- 0 0.0 3.0 68 119
- 0.552269 0 6 tcp 1540 ------- 0 0.0 3.0 68 119
+ 0.552394 0 6 tcp 1540 ------- 0 0.0 3.0 69 120
- 0.552394 0 6 tcp 1540 ------- 0 0.0 3.0 69 120
+ 0.55252 0 6 tcp 1540 ------- 0 0.0 3.0 70 121
- 0.55252 0 6 tcp 1540 ------- 0 0.0 3.0 70 121
r 0.560269 6 3 tcp 1540 ------- 0 0.0 3.0 51 102
h 0.560269 3 6 ack 40 ------- 0 3.0 0.0 51 122
r 0.560394 6 3 tcp 1540 ------- 0 0.0 3.0 52 103
h 0.560394 3 6 ack 40 ------- 0 3.0 0.0 52 123
r 0.560519 6 3 tcp 1540 ------- 0 0.0 3.0 53 104
h 0.560519 3 6 ack 40 ------- 0 3.0 0.0 53 124
r 0.560645 6 3 tcp 1540 ------- 0 0.0 3.0 54 105
h 0.560645 3 6 ack 40 ------- 0 3.0 0.0 54 125
r 0.56077 6 3 tcp 1540 ------- 0 0.0 3.0 55 106
h 0.56077 3 6 ack 40 ------- 0 3.0 0.0 55 126
r 0.560895 6 3 tcp 1540 ------- 0 0.0 3.0 56 107
h 0.560895 3 6 ack 40 ------- 0 3.0 0.0 56 127
r 0.56102 6 3 tcp 1540 ------- 0 0.0 3.0 57 108
h 0.56102 3 6 ack 40 ------- 0 3.0 0.0 57 128
r 0.561146 6 3 tcp 1540 ------- 0 0.0 3.0 58 109
h 0.561146 3 6 ack 40 ------- 0 3.0 0.0 58 129
r 0.561271 6 3 tcp 1540 ------- 0 0.0 3.0 59 110
h 0.561271 3 6 ack 40 ------- 0 3.0 0.0 59 130
r 0.561396 6 3 tcp 1540 ------- 0 0.0 3.0 60 111
h 0.561396 3 6 ack 40 ------- 0 3.0 0.0 60 131
r 0.561522 6 3 tcp 1540 ------- 0 0.0 3.0 61 112
h 0.561522 3 6 ack 40 ------- 0 3.0 0.0 61 132
r 0.561647 6 3 tcp 1540 ------- 0 0.0 3.0 62 113
h 0.561647 3 6 ack 40 ------- 0 3.0 0.0 62 133
r 0.561772 6 3 tcp 1540 ------- 0 0.0 3.0 63 114
h 0.561772 3 6 ack 40 ------- 0 3.0 0.0 63 134
r 0.561897 6 3 tcp 1540 ------- 0 0.0 3.0 64 115
h 0.561897 3 6 ack 40 ------- 0 3.0 0.0 64 135
r 0.562023 6 3 tcp 1540 ------- 0 0.0 3.0 65 116
h 0.562023 3 6 ack 40 ------- 0 3.0 0.0 65 136
r 0.562148 6 3 tcp 1540 ------- 0 0.0 3.0 66 117
h 0.562148 3 6 ack 40 ------- 0 3.0 0.0 66 137
r 0.562273 6 3 tcp 1540 ------- 0 0.0 3.0 67 118
h 0.562273 3 6 ack 40 ------- 0 3.0 0.0 67 138
r 0.562399 6 3 tcp 1540 ------- 0 0.0 3.0 68 119
h 0.562399 3 6 ack 40 ------- 0 3.0 0.0 68 139
r 0.562524 6 3 tcp 1540 ------- 0 0.0 3.0 69 120
h 0.562524 3 6 ack 40 ------- 0 3.0 0.0 69 140
r 0.562649 6 3 tcp 1540 ------- 0 0.0 3.0 70 121
h 0.562649 3 6 ack 40 ------- 0 3.0 0.0 70 141
+ 0.570269 3 6 ack 40 ------- 0 3.0 0.0 51 122
- 0.570269 3 6 ack 40 ------- 0 3.0 0.0 51 122
+ 0.570394 3 6 ack 40 ------- 0 3.0 0.0 52 123
- 0.570394 3 6 ack 40 ------- 0 3.0 0.0 52 123
+ 0.570519 3 6 ack 40 ------- 0 3.0 0.0 53 124
- 0.570519 3 6 ack 40 ------- 0 3.0 0.0 53 124
+ 0.570645 3 6 ack 40 ------- 0 3.0 0.0 54 125
- 0.570645 3 6 ack 40 ------- 0 3.0 0.0 54 125
+ 0.57077 3 6 ack 40 ------- 0 3.0 0.0 55 126
- 0.57077 3 6 ack 40 ------- 0 3.0 0.0 55 126
+ 0.570895 3 6 ack 40 ------- 0 3.0 0.0 56 127
- 0.570895 3 6 ack 40 ------- 0 3.0 0.0 56 127
+ 0.57102 3 6 ack 40 ------- 0 3.0 0.0 57 128
- 0.57102 3 6 ack 40 ------- 0 3.0 0.0 57 128
+ 0.571146 3 6 ack 40 ------- 0 3.0 0.0 58 129
- 0.571146 3 6 ack 40 ------- 0 3.0 0.0 58 129
+ 0.571271 3 6 ack 40 ------- 0 3.0 0.0 59 130
- 0.571271 3 6 ack 40 ------- 0 3.0 0.0 59 130
+ 0.571396 3 6 ack 40 ------- 0 3.0 0.0 60 131
- 0.571396 3 6 ack 40 ------- 0 3.0 0.0 60 131
+ 0.571522 3 6 ack 40 ------- 0 3.0 0.0 61 132
- 0.571522 3 6 ack 40 ------- 0 3.0 0.0 61 132
+ 0.571647 3 6 ack 40 ------- 0 3.0 0.0 62 133
- 0.571647 3 6 ack 40 ------- 0 3.0 0.0 62 133
+ 0.571772 3 6 ack 40 ------- 0 3.0 0.0 63 134
- 0.571772 3 6 ack 40 ------- 0 3.0 0.0 63 134
+ 0.571897 3 6 ack 40 ------- 0 3.0 0.0 64 135
- 0.571897 3 6 ack 40 ------- 0 3.0 0.0 64 135
+ 0.572023 3 6 ack 40 ------- 0 3.0 0.0 65 136
- 0.572023 3 6 ack 40 ------- 0 3.0 0.0 65 136
+ 0.572148 3 6 ack 40 ------- 0 3.0 0.0 66 137
- 0.572148 3 6 ack 40 ------- 0 3.0 0.0 66 137
+ 0.572273 3 6 ack 40 ------- 0 3.0 0.0 67 138
- 0.572273 3 6 ack 40 ------- 0 3.0 0.0 67 138
+ 0.572399 3 6 ack 40 ------- 0 3.0 0.0 68 139
- 0.572399 3 6 ack 40 ------- 0 3.0 0.0 68 139
+ 0.572524 3 6 ack 40 ------- 0 3.0 0.0 69 140
- 0.572524 3 6 ack 40 ------- 0 3.0 0.0 69 140
+ 0.572649 3 6 ack 40 ------- 0 3.0 0.0 70 141
- 0.572649 3 6 ack 40 ------- 0 3.0 0.0 70 141
r 0.580279 6 0 ack 40 ------- 0 3.0 0.0 51 122
h 0.580279 0 6 tcp 1540 ------- 0 0.0 3.0 71 142
r 0.580404 6 0 ack 40 ------- 0 3.0 0.0 52 123
h 0.580404 0 6 tcp 1540 ------- 0 0.0 3.0 72 143
r 0.580529 6 0 ack 40 ------- 0 3.0 0.0 53 124
h 0.580529 0 6 tcp 1540 ------- 0 0.0 3.0 73 144
r 0.580655 6 0 ack 40 ------- 0 3.0 0.0 54 125
h 0.580655 0 6 tcp 1540 ------- 0 0.0 3.0 74 145
r 0.58078 6 0 ack 40 ------- 0 3.0 0.0 55 126
h 0.58078 0 6 tcp 1540 ------- 0 0.0 3.0 75 146
r 0.580905 6 0 ack 40 ------- 0 3.0 0.0 56 127
h 0.580905 0 6 tcp 1540 ------- 0 0.0 3.0 76 147
r 0.581031 6 0 ack 40 ------- 0 3.0 0.0 57 128
h 0.581031 0 6 tcp 1540 ------- 0 0.0 3.0 77 148
r 0.581156 6 0 ack 40 ------- 0 3.0 0.0 58 129
h 0.581156 0 6 tcp 1540 ------- 0 0.0 3.0 78 149
r 0.581281 6 0 ack 40 ------- 0 3.0 0.0 59 130
h 0.581281 0 6 tcp 1540 ------- 0 0.0 3.0 79 150
r 0.581406 6 0 ack 40 ------- 0 3.0 0.0 60 131
h 0.581406 0 6 tcp 1540 ------- 0 0.0 3.0 80 151
r 0.581532 6 0 ack 40 ------- 0 3.0 0.0 61 132
h 0.581532 0 6 tcp 1540 ------- 0 0.0 3.0 81 152
r 0.581657 6 0 ack 40 ------- 0 3.0 0.0 62 133
h 0.581657 0 6 tcp 1540 ------- 0 0.0 3.0 82 153
r 0.581782 6 0 ack 40 ------- 0 3.0 0.0 63 134
h 0.581782 0 6 tcp 1540 ------- 0 0.0 3.0 83 154
r 0.581908 6 0 ack 40 ------- 0 3.0 0.0 64 135
h 0.581908 0 6 tcp 1540 ------- 0 0.0 3.0 84 155
r 0.582033 6 0 ack 40 ------- 0 3.0 0.0 65 136
h 0.582033 0 6 tcp 1540 ------- 0 0.0 3.0 85 156
r 0.582158 6 0 ack 40 ------- 0 3.0 0.0 66 137
h 0.582158 0 6 tcp 1540 ------- 0 0.0 3.0 86 157
r 0.582283 6 0 ack 40 ------- 0 3.0 0.0 67 138
h 0.582283 0 6 tcp 1540 ------- 0 0.0 3.0 87 158
r 0.582409 6 0 ack 40 ------- 0 3.0 0.0 68 139
h 0.582409 0 6 tcp 1540 ------- 0 0.0 3.0 88 159
r 0.582534 6 0 ack 40 ------- 0 3.0 0.0 69 140
h 0.582534 0 6 tcp 1540 ------- 0 0.0 3.0 89 160
r 0.582659 6 0 ack 40 ------- 0 3.0 0.0 70 141
h 0.582659 0 6 tcp 1540 ------- 0 0.0 3.0 90 161
+ 0.590279 0 6 tcp 1540 ------- 0 0.0 3.0 71 142
- 0.590279 0 6 tcp 1540 ------- 0 0.0 3.0 71 142
+ 0.590404 0 6 tcp 1540 ------- 0 0.0 3.0 72 143
- 0.590404 0 6 tcp 1540 ------- 0 0.0 3.0 72 143
+ 0.590529 0 6 tcp 1540 ------- 0 0.0 3.0 73 144
- 0.590529 0 6 tcp 1540 ------- 0 0.0 3.0 73 144
+ 0.590655 0 6 tcp 1540 ------- 0 0.0 3.0 74 145
- 0.590655 0 6 tcp 1540 ------- 0 0.0 3.0 74 145
+ 0.59078 0 6 tcp 1540 ------- 0 0.0 3.0 75 146
- 0.59078 0 6 tcp 1540 ------- 0 0.0 3.0 75 146
+ 0.590905 0 6 tcp 1540 ------- 0 0.0 3.0 76 147
- 0.590905 0 6 tcp 1540 ------- 0 0.0 3.0 76 147
+ 0.591031 0 6 tcp 1540 ------- 0 0.0 3.0 77 148
- 0.591031 0 6 tcp 1540 ------- 0 0.0 3.0 77 148
+ 0.591156 0 6 tcp 1540 ------- 0 0.0 3.0 78 149
- 0.591156 0 6 tcp 1540 ------- 0 0.0 3.0 78 149
+ 0.591281 0 6 tcp 1540 ------- 0 0.0 3.0 79 150
- 0.591281 0 6 tcp 1540 ------- 0 0.0 3.0 79 150
+ 0.591406 0 6 tcp 1540 ------- 0 0.0 3.0 80 151
- 0.591406 0 6 tcp 1540 ------- 0 0.0 3.0 80 151
+ 0.591532 0 6 tcp 1540 ------- 0 0.0 3.0 81 152
- 0.591532 0 6 tcp 1540 ------- 0 0.0 3.0 81 152
+ 0.591657 0 6 tcp 1540 ------- 0 0.0 3.0 82 153
- 0.591657 0 6 tcp 1540 ------- 0 0.0 3.0 82 153
+ 0.591782 0 6 tcp 1540 ------- 0 0.0 3.0 83 154
- 0.591782 0 6 tcp 1540 ------- 0 0.0 3.0 83 154
+ 0.591908 0 6 tcp 1540 ------- 0 0.0 3.0 84 155
- 0.591908 0 6 tcp 1540 ------- 0 0.0 3.0 84 155
+ 0.592033 0 6 tcp 1540 ------- 0 0.0 3.0 85 156
- 0.592033 0 6 tcp 1540 ------- 0 0.0 3.0 85 156
+ 0.592158 0 6 tcp 1540 ------- 0 0.0 3.0 86 157
- 0.592158 0 6 tcp 1540 ------- 0 0.0 3.0 86 157
+ 0.592283 0 6 tcp 1540 ------- 0 0.0 3.0 87 158
- 0.592283 0 6 tcp 1540 ------- 0 0.0 3.0 87 158
+ 0.592409 0 6 tcp 1540 ------- 0 0.0 3.0 88 159
- 0.592409 0 6 tcp 1540 ------- 0 0.0 3.0 88 159
+ 0.592534 0 6 tcp 1540 ------- 0 0.0 3.0 89 160
- 0.592534 0 6 tcp 1540 ------- 0 0.0 3.0 89 160
+ 0.592659 0 6 tcp 1540 ------- 0 0.0 3.0 90 161
- 0.592659 0 6 tcp 1540 ------- 0 0.0 3.0 90 161
r 0.600408 6 3 tcp 1540 ------- 0 0.0 3.0 71 142
h 0.600408 3 6 ack 40 ------- 0 3.0 0.0 71 162
r 0.600533 6 3 tcp 1540 ------- 0 0.0 3.0 72 143
h 0.600533 3 6 ack 40 ------- 0 3.0 0.0 72 163
r 0.600659 6 3 tcp 1540 ------- 0 0.0 3.0 73 144
h 0.600659 3 6 ack 40 ------- 0 3.0 0.0 73 164
r 0.600784 6 3 tcp 1540 ------- 0 0.0 3.0 74 145
h 0.600784 3 6 ack 40 ------- 0 3.0 0.0 74 165
r 0.600909 6 3 tcp 1540 ------- 0 0.0 3.0 75 146
h 0.600909 3 6 ack 40 ------- 0 3.0 0.0 75 166
r 0.601035 6 3 tcp 1540 ------- 0 0.0 3.0 76 147
h 0.601035 3 6 ack 40 ------- 0 3.0 0.0 76 167