V -t * -v 1.0a5 -a 0
A -t * -n 1 -p 0 -o 0x7fffffff -c 30 -a 1
A -t * -h 1 -m 1073741823 -s 0
n -t * -a 4 -s 4 -S UP -v circle -c black -i black
n -t * -a 0 -s 0 -S UP -v circle -c black -i black
n -t * -a 5 -s 5 -S UP -v circle -c black -i black
n -t * -a 1 -s 1 -S UP -v circle -c black -i black
n -t * -a 2 -s 2 -S UP -v circle -c black -i black
n -t * -a 3 -s 3 -S UP -v circle -c black -i black
l -t * -s 4 -d 5 -S UP -r 100000000 -D 0.01 -c black -o right
X -t * -n 6 -r 100.0Mb -D 10ms -o left
L -t * -s 6 -d 0 -o up
L -t * -s 6 -d 1 -o down
L -t * -s 6 -d 2 -o up
L -t * -s 6 -d 3 -o down
L -t * -s 6 -d 4 -o up
h -t 0.1 -s 0 -d 6 -p tcp -e 40 -c 0 -i 0 -a 0 -x {0.0 3.0 0 ------- null}
+ -t 0.11 -s 0 -d 6 -p tcp -e 40 -c 0 -i 0 -a 0 -x {0.0 3.0 0 ------- null}
- -t 0.11 -s 0 -d 6 -p tcp -e 40 -c 0 -i 0 -a 0 -x {0.0 3.0 0 ------- null}
h -t 0.11 -s 0 -d 6 -p tcp -e 40 -c 0 -i 0 -a 0 -x {0.0 3.0 -1 ------- null}
r -t 0.12001012 -s 6 -d 3 -p tcp -e 40 -c 0 -i 0 -a 0 -x {0.0 3.0 0 ------- null}
h -t 0.12001012 -s 3 -d 6 -p ack -e 40 -c 0 -i 1 -a 0 -x {3.0 0.0 0 ------- null}
+ -t 0.13001012 -s 3 -d 6 -p ack -e 40 -c 0 -i 1 -a 0 -x {3.0 0.0 0 ------- null}
- -t 0.13001012 -s 3 -d 6 -p ack -e 40 -c 0 -i 1 -a 0 -x {3.0 0.0 0 ------- null}
h -t 0.13001012 -s 3 -d 6 -p ack -e 40 -c 0 -i 1 -a 0 -x {3.0 0.0 -1 ------- null}
r -t 0.14002024 -s 6 -d 0 -p ack -e 40 -c 0 -i 1 -a 0 -x {3.0 0.0 0 ------- null}
h -t 0.14002024 -s 0 -d 6 -p tcp -e 1540 -c 0 -i 2 -a 0 -x {0.0 3.0 1 ------- null}
h -t 0.14002024 -s 0 -d 6 -p tcp -e 1540 -c 0 -i 3 -a 0 -x {0.0 3.0 2 ------- null}
+ -t 0.15002024 -s 0 -d 6 -p tcp -e 1540 -c 0 -i 2 -a 0 -x {0.0 3.0 1 ------- null}
- -t 0.15002024 -s 0 -d 6 -p tcp -e 1540 -c 0 -i 2 -a 0 -x {0.0 3.0 1 ------- null}
h -t 0.15002024 -s 0 -d 6 -p tcp -e 1540 -c 0 -i 2 -a 0 -x {0.0 3.0 -1 ------- null}
+ -t 0.15002024 -s 0 -d 6 -p tcp -e 1540 -c 0 -i 3 -a 0 -x {0.0 3.0 2 ------- null}
- -t 0.15014552 -s 0 -d 6 -p tcp -e 1540 -c 0 -i 3 -a 0 -x {0.0 3.0 2 ------- null}
h -t 0.15014552 -s 0 -d 6 -p tcp -e 1540 -c 0 -i 3 -a 0 -x {0.0 3.0 -1 ------- null}
r -t 0.16014956 -s 6 -d 3 -p tcp -e 1540 -c 0 -i 2 -a 0 -x {0.0 3.0 1 ------- null}
h -t 0.16014956 -s 3 -d 6 -p ack -e 40 -c 0 -i 4 -a 0 -x {3.0 0.0 1 ------- null}
r -t 0.16027484 -s 6 -d 3 -p tcp -e 1540 -c 0 -i 3 -a 0 -x {0.0 3.0 2 ------- null}
h -t 0.16027484 -s 3 -d 6 -p ack -e 40 -c 0 -i 5 -a 0 -x {3.0 0.0 2 ------- null}
+ -t 0.17014956 -s 3 -d 6 -p ack -e 40 -c 0 -i 4 -a 0 -x {3.0 0.0 1 ------- null}
- -t 0.17014956 -s 3 -d 6 -p ack -e 40 -c 0 -i 4 -a 0 -x {3.0 0.0 1 ------- null}
h -t 0.17014956 -s 3 -d 6 -p ack -e 40 -c 0 -i 4 -a 0 -x {3.0 0.0 -1 ------- null}
+ -t 0.17027484 -s 3 -d 6 -p ack -e 40 -c 0 -i 5 -a 0 -x {3.0 0.0 2 ------- null}
- -t 0.17027484 -s 3 -d 6 -p ack -e 40 -c 0 -i 5 -a 0 -x {3.0 0.0 2 ------- null}
h -t 0.17027484 -s 3 -d 6 -p ack -e 40 -c 0 -i 5 -a 0 -x {3.0 0.0 -1 ------- null}
r -t 0.18015968 -s 6 -d 0 -p ack -e 40 -c 0 -i 4 -a 0 -x {3.0 0.0 1 ------- null}
h -t 0.18015968 -s 0 -d 6 -p tcp -e 1540 -c 0 -i 6 -a 0 -x {0.0 3.0 3 ------- null}
h -t 0.18015968 -s 0 -d 6 -p tcp -e 1540 -c 0 -i 7 -a 0 -x {0.0 3.0 4 ------- null}
r -t 0.18028496 -s 6 -d 0 -p ack -e 40 -c 0 -i 5 -a 0 -x {3.0 0.0 2 ------- null}
h -t 0.18028496 -s 0 -d 6 -p tcp -e 1540 -c 0 -i 8 -a 0 -x {0.0 3.0 5 ------- null}
h -t 0.18028496 -s 0 -d 6 -p tcp -e 1540 -c 0 -i 9 -a 0 -x {0.0 3.0 6 ------- null}
+ -t 0.19015968 -s 0 -d 6 -p tcp -e 1540 -c 0 -i 6 -a 0 -x {0.0 3.0 3 ------- null}
- -t 0.19015968 -s 0 -d 6 -p tcp -e 1540 -c 0 -i 6 -a 0 -x {0.0 3.0 3 ------- null}
h -t 0.19015968 -s 0 -d 6 -p tcp -e 1540 -c 0 -i 6 -a 0 -x {0.0 3.0 -1 ------- null}
+ -t 0.19015968 -s 0 -d 6 -p tcp -e 1540 -c 0 -i 7 -a 0 -x {0.0 3.0 4 ------- null}
+ -t 0.19028496 -s 0 -d 6 -p tcp -e 1540 -c 0 -i 8 -a 0 -x {0.0 3.0 5 ------- null}
+ -t 0.19028496 -s 0 -d 6 -p tcp -e 1540 -c 0 -i 9 -a 0 -x {0.0 3.0 6 ------- null}
- -t 0.19028496 -s 0 -d 6 -p tcp -e 1540 -c 0 -i 7 -a 0 -x {0.0 3.0 4 ------- null}
h -t 0.19028496 -s 0 -d 6 -p tcp -e 1540 -c 0 -i 7 -a 0 -x {0.0 3.0 -1 ------- null}
- -t 0.19041024 -s 0 -d 6 -p tcp -e 1540 -c 0 -i 8 -a 0 -x {0.0 3.0 5 ------- null}
h -t 0.19041024 -s 0 -d 6 -p tcp -e 1540 -c 0 -i 8 -a 0 -x {0.0 3.0 -1 ------- null}
- -t 0.19053552 -s 0 -d 6 -p tcp -e 1540 -c 0 -i 9 -a 0 -x {0.0 3.0 6 ------- null}
h -t 0.19053552 -s 0 -d 6 -p tcp -e 1540 -c 0 -i 9 -a 0 -x {0.0 3.0 -1 ------- null}
r -t 0.200289 -s 6 -d 3 -p tcp -e 1540 -c 0 -i 6 -a 0 -x {0.0 3.0 3 ------- null}
h -t 0.200289 -s 3 -d 6 -p ack -e 40 -c 0 -i 10 -a 0 -x {3.0 0.0 3 ------- null}
r -t 0.20041428 -s 6 -d 3 -p tcp -e 1540 -c 0 -i 7 -a 0 -x {0.0 3.0 4 ------- null}
h -t 0.20041428 -s 3 -d 6 -p ack -e 40 -c 0 -i 11 -a 0 -x {3.0 0.0 4 ------- null}
r -t 0.20053956 -s 6 -d 3 -p tcp -e 1540 -c 0 -i 8 -a 0 -x {0.0 3.0 5 ------- null}
h -t 0.20053956 -s 3 -d 6 -p ack -e 40 -c 0 -i 12 -a 0 -x {3.0 0.0 5 ------- null}
r -t 0.20066484 -s 6 -d 3 -p tcp -e 1540 -c 0 -i 9 -a 0 -x {0.0 3.0 6 ------- null}
h -t 0.20066484 -s 3 -d 6 -p ack -e 40 -c 0 -i 13 -a 0 -x {3.0 0.0 6 ------- null}
+ -t 0.210289 -s 3 -d 6 -p ack -e 40 -c 0 -i 10 -a 0 -x {3.0 0.0 3 ------- null}
- -t 0.210289 -s 3 -d 6 -p ack -e 40 -c 0 -i 10 -a 0 -x {3.0 0.0 3 ------- null}
h -t 0.210289 -s 3 -d 6 -p ack -e 40 -c 0 -i 10 -a 0 -x {3.0 0.0 -1 ------- null}
+ -t 0.21041428 -s 3 -d 6 -p ack -e 40 -c 0 -i 11 -a 0 -x {3.0 0.0 4 ------- null}
- -t 0.21041428 -s 3 -d 6 -p ack -e 40 -c 0 -i 11 -a 0 -x {3.0 0.0 4 ------- null}
h -t 0.21041428 -s 3 -d 6 -p ack -e 40 -c 0 -i 11 -a 0 -x {3.0 0.0 -1 ------- null}
+ -t 0.21053956 -s 3 -d 6 -p ack -e 40 -c 0 -i 12 -a 0 -x {3.0 0.0 5 ------- null}
- -t 0.21053956 -s 3 -d 6 -p ack -e 40 -c 0 -i 12 -a 0 -x {3.0 0.0 5 ------- null}
h -t 0.21053956 -s 3 -d 6 -p ack -e 40 -c 0 -i 12 -a 0 -x {3.0 0.0 -1 ------- null}
+ -t 0.21066484 -s 3 -d 6 -p ack -e 40 -c 0 -i 13 -a 0 -x {3.0 0.0 6 ------- null}
- -t 0.21066484 -s 3 -d 6 -p ack -e 40 -c 0 -i 13 -a 0 -x {3.0 0.0 6 ------- null}
h -t 0.21066484 -s 3 -d 6 -p ack -e 40 -c 0 -i 13 -a 0 -x {3.0 0.0 -1 ------- null}
r -t 0.22029912 -s 6 -d 0 -p ack -e 40 -c 0 -i 10 -a 0 -x {3.0 0.0 3 ------- null}
h -t 0.22029912 -s 0 -d 6 -p tcp -e 1540 -c 0 -i 14 -a 0 -x {0.0 3.0 7 ------- null}
h -t 0.22029912 -s 0 -d 6 -p tcp -e 1540 -c 0 -i 15 -a 0 -x {0.0 3.0 8 ------- null}
r -t 0.2204244 -s 6 -d 0 -p ack -e 40 -c 0 -i 11 -a 0 -x {3.0 0.0 4 ------- null}
h -t 0.2204244 -s 0 -d 6 -p tcp -e 1540 -c 0 -i 16 -a 0 -x {0.0 3.0 9 ------- null}
h -t 0.2204244 -s 0 -d 6 -p tcp -e 1540 -c 0 -i 17 -a 0 -x {0.0 3.0 10 ------- null}
r -t 0.22054968 -s 6 -d 0 -p ack -e 40 -c 0 -i 12 -a 0 -x {3.0 0.0 5 ------- null}
h -t 0.22054968 -s 0 -d 6 -p tcp -e 1540 -c 0 -i 18 -a 0 -x {0.0 3.0 11 ------- null}
h -t 0.22054968 -s 0 -d 6 -p tcp -e 1540 -c 0 -i 19 -a 0 -x {0.0 3.0 12 ------- null}
r -t 0.22067496 -s 6 -d 0 -p ack -e 40 -c 0 -i 13 -a 0 -x {3.0 0.0 6 ------- null}
h -t 0.22067496 -s 0 -d 6 -p tcp -e 1540 -c 0 -i 20 -a 0 -x {0.0 3.0 13 ------- null}
h -t 0.22067496 -s 0 -d 6 -p tcp -e 1540 -c 0 -i 21 -a 0 -x {0.0 3.0 14 ------- null}
+ -t 0.23029912 -s 0 -d 6 -p tcp -e 1540 -c 0 -i 14 -a 0 -x {0.0 3.0 7 ------- null}
- -t 0.23029912 -s 0 -d 6 -p tcp -e 1540 -c 0 -i 14 -a 0 -x {0.0 3.0 7 ------- null}
h -t 0.23029912 -s 0 -d 6 -p tcp -e 1540 -c 0 -i 14 -a 0 -x {0.0 3.0 -1 ------- null}
+ -t 0.23029912 -s 0 -d 6 -p tcp -e 1540 -c 0 -i 15 -a 0 -x {0.0 3.0 8 ------- null}
+ -t 0.2304244 -s 0 -d 6 -p tcp -e 1540 -c 0 -i 16 -a 0 -x {0.0 3.0 9 ------- null}
+ -t 0.2304244 -s 0 -d 6 -p tcp -e 1540 -c 0 -i 17 -a 0 -x {0.0 3.0 10 ------- null}
- -t 0.2304244 -s 0 -d 6 -p tcp -e 1540 -c 0 -i 15 -a 0 -x {0.0 3.0 8 ------- null}
h -t 0.2304244 -s 0 -d 6 -p tcp -e 1540 -c 0 -i 15 -a 0 -x {0.0 3.0 -1 ------- null}
+ -t 0.23054968 -s 0 -d 6 -p tcp -e 1540 -c 0 -i 18 -a 0 -x {0.0 3.0 11 ------- null}
+ -t 0.23054968 -s 0 -d 6 -p tcp -e 1540 -c 0 -i 19 -a 0 -x {0.0 3.0 12 ------- null}
- -t 0.23054968 -s 0 -d 6 -p tcp -e 1540 -c 0 -i 16 -a 0 -x {0.0 3.0 9 ------- null}
h -t 0.23054968 -s 0 -d 6 -p tcp -e 1540 -c 0 -i 16 -a 0 -x {0.0 3.0 -1 ------- null}
+ -t 0.23067496 -s 0 -d 6 -p tcp -e 1540 -c 0 -i 20 -a 0 -x {0.0 3.0 13 ------- null}
+ -t 0.23067496 -s 0 -d 6 -p tcp -e 1540 -c 0 -i 21 -a 0 -x {0.0 3.0 14 ------- null}
- -t 0.23067496 -s 0 -d 6 -p tcp -e 1540 -c 0 -i 17 -a 0 -x {0.0 3.0 10 ------- null}
h -t 0.23067496 -s 0 -d 6 -p tcp -e 1540 -c 0 -i 17 -a 0 -x {0.0 3.0 -1 ------- null}
- -t 0.23080024 -s 0 -d 6 -p tcp -e 1540 -c 0 -i 18 -a 0 -x {0.0 3.0 11 ------- null}
h -t 0.23080024 -s 0 -d 6 -p tcp -e 1540 -c 0 -i 18 -a 0 -x {0.0 3.0 -1 ------- null}
- -t 0.23092552 -s 0 -d 6 -p tcp -e 1540 -c 0 -i 19 -a 0 -x {0.0 3.0 12 ------- null}
h -t 0.23092552 -s 0 -d 6 -p tcp -e 1540 -c 0 -i 19 -a 0 -x {0.0 3.0 -1 ------- null}
- -t 0.2310508 -s 0 -d 6 -p tcp -e 1540 -c 0 -i 20 -a 0 -x {0.0 3.0 13 ------- null}
h -t 0.2310508 -s 0 -d 6 -p tcp -e 1540 -c 0 -i 20 -a 0 -x {0.0 3.0 -1 ------- null}
- -t 0.23117608 -s 0 -d 6 -p tcp -e 1540 -c 0 -i 21 -a 0 -x {0.0 3.0 14 ------- null}
h -t 0.23117608 -s 0 -d 6 -p tcp -e 1540 -c 0 -i 21 -a 0 -x {0.0 3.0 -1 ------- null}
r -t 0.24042844 -s 6 -d 3 -p tcp -e 1540 -c 0 -i 14 -a 0 -x {0.0 3.0 7 ------- null}
h -t 0.24042844 -s 3 -d 6 -p ack -e 40 -c 0 -i 22 -a 0 -x {3.0 0.0 7 ------- null}
r -t 0.24055372 -s 6 -d 3 -p tcp -e 1540 -c 0 -i 15 -a 0 -x {0.0 3.0 8 ------- null}
h -t 0.24055372 -s 3 -d 6 -p ack -e 40 -c 0 -i 23 -a 0 -x {3.0 0.0 8 ------- null}
r -t 0.240679 -s 6 -d 3 -p tcp -e 1540 -c 0 -i 16 -a 0 -x {0.0 3.0 9 ------- null}
h -t 0.240679 -s 3 -d 6 -p ack -e 40 -c 0 -i 24 -a 0 -x {3.0 0.0 9 ------- null}
r -t 0.24080428 -s 6 -d 3 -p tcp -e 1540 -c 0 -i 17 -a 0 -x {0.0 3.0 10 ------- null}
h -t 0.24080428 -s 3 -d 6 -p ack -e 40 -c 0 -i 25 -a 0 -x {3.0 0.0 10 ------- null}
r -t 0.24092956 -s 6 -d 3 -p tcp -e 1540 -c 0 -i 18 -a 0 -x {0.0 3.0 11 ------- null}
h -t 0.24092956 -s 3 -d 6 -p ack -e 40 -c 0 -i 26 -a 0 -x {3.0 0.0 11 ------- null}
r -t 0.24105484 -s 6 -d 3 -p tcp -e 1540 -c 0 -i 19 -a 0 -x {0.0 3.0 12 ------- null}
h -t 0.24105484 -s 3 -d 6 -p ack -e 40 -c 0 -i 27 -a 0 -x {3.0 0.0 12 ------- null}
r -t 0.24118012 -s 6 -d 3 -p tcp -e 1540 -c 0 -i 20 -a 0 -x {0.0 3.0 13 ------- null}
h -t 0.24118012 -s 3 -d 6 -p ack -e 40 -c 0 -i 28 -a 0 -x {3.0 0.0 13 ------- null}
r -t 0.2413054 -s 6 -d 3 -p tcp -e 1540 -c 0 -i 21 -a 0 -x {0.0 3.0 14 ------- null}
h -t 0.2413054 -s 3 -d 6 -p ack -e 40 -c 0 -i 29 -a 0 -x {3.0 0.0 14 ------- null}
+ -t 0.25042844 -s 3 -d 6 -p ack -e 40 -c 0 -i 22 -a 0 -x {3.0 0.0 7 ------- null}
- -t 0.25042844 -s 3 -d 6 -p ack -e 40 -c 0 -i 22 -a 0 -x {3.0 0.0 7 ------- null}
h -t 0.25042844 -s 3 -d 6 -p ack -e 40 -c 0 -i 22 -a 0 -x {3.0 0.0 -1 ------- null}
+ -t 0.25055372 -s 3 -d 6 -p ack -e 40 -c 0 -i 23 -a 0 -x {3.0 0.0 8 ------- null}
- -t 0.25055372 -s 3 -d 6 -p ack -e 40 -c 0 -i 23 -a 0 -x {3.0 0.0 8 ------- null}
h -t 0.25055372 -s 3 -d 6 -p ack -e 40 -c 0 -i 23 -a 0 -x {3.0 0.0 -1 ------- null}
+ -t 0.250679 -s 3 -d 6 -p ack -e 40 -c 0 -i 24 -a 0 -x {3.0 0.0 9 ------- null}
- -t 0.250679 -s 3 -d 6 -p ack -e 40 -c 0 -i 24 -a 0 -x {3.0 0.0 9 ------- null}
h -t 0.250679 -s 3 -d 6 -p ack -e 40 -c 0 -i 24 -a 0 -x {3.0 0.0 -1 ------- null}
+ -t 0.25080428 -s 3 -d 6 -p ack -e 40 -c 0 -i 25 -a 0 -x {3.0 0.0 10 ------- null}
- -t 0.25080428 -s 3 -d 6 -p ack -e 40 -c 0 -i 25 -a 0 -x {3.0 0.0 10 ------- null}
h -t 0.25080428 -s 3 -d 6 -p ack -e 40 -c 0 -i 25 -a 0 -x {3.0 0.0 -1 ------- null}
+ -t 0.25092956 -s 3 -d 6 -p ack -e 40 -c 0 -i 26 -a 0 -x {3.0 0.0 11 ------- null}
- -t 0.25092956 -s 3 -d 6 -p ack -e 40 -c 0 -i 26 -a 0 -x {3.0 0.0 11 ------- null}
h -t 0.25092956 -s 3 -d 6 -p ack -e 40 -c 0 -i 26 -a 0 -x {3.0 0.0 -1 ------- null}
+ -t 0.25105484 -s 3 -d 6 -p ack -e 40 -c 0 -i 27 -a 0 -x {3.0 0.0 12 ------- null}
- -t 0.25105484 -s 3 -d 6 -p ack -e 40 -c 0 -i 27 -a 0 -x {3.0 0.0 12 ------- null}
h -t 0.25105484 -s 3 -d 6 -p ack -e 40 -c 0 -i 27 -a 0 -x {3.0 0.0 -1 ------- null}
+ -t 0.25118012 -s 3 -d 6 -p ack -e 40 -c 0 -i 28 -a 0 -x {3.0 0.0 13 ------- null}
- -t 0.25118012 -s 3 -d 6 -p ack -e 40 -c 0 -i 28 -a 0 -x {3.0 0.0 13 ------- null}
h -t 0.25118012 -s 3 -d 6 -p ack -e 40 -c 0 -i 28 -a 0 -x {3.0 0.0 -1 ------- null}
+ -t 0.2513054 -s 3 -d 6 -p ack -e 40 -c 0 -i 29 -a 0 -x {3.0 0.0 14 ------- null}
- -t 0.2513054 -s 3 -d 6 -p ack -e 40 -c 0 -i 29 -a 0 -x {3.0 0.0 14 ------- null}
h -t 0.2513054 -s 3 -d 6 -p ack -e 40 -c 0 -i 29 -a 0 -x {3.0 0.0 -1 ------- null}
r -t 0.26043856 -s 6 -d 0 -p ack -e 40 -c 0 -i 22 -a 0 -x {3.0 0.0 7 ------- null}
h -t 0.26043856 -s 0 -d 6 -p tcp -e 1540 -c 0 -i 30 -a 0 -x {0.0 3.0 15 ------- null}
h -t 0.26043856 -s 0 -d 6 -p tcp -e 1540 -c 0 -i 31 -a 0 -x {0.0 3.0 16 ------- null}
r -t 0.26056384 -s 6 -d 0 -p ack -e 40 -c 0 -i 23 -a 0 -x {3.0 0.0 8 ------- null}
h -t 0.26056384 -s 0 -d 6 -p tcp -e 1540 -c 0 -i 32 -a 0 -x {0.0 3.0 17 ------- null}
h -t 0.26056384 -s 0 -d 6 -p tcp -e 1540 -c 0 -i 33 -a 0 -x {0.0 3.0 18 ------- null}
r -t 0.26068912 -s 6 -d 0 -p ack -e 40 -c 0 -i 24 -a 0 -x {3.0 0.0 9 ------- null}
h -t 0.26068912 -s 0 -d 6 -p tcp -e 1540 -c 0 -i 34 -a 0 -x {0.0 3.0 19 ------- null}
h -t 0.26068912 -s 0 -d 6 -p tcp -e 1540 -c 0 -i 35 -a 0 -x {0.0 3.0 20 ------- null}
r -t 0.2608144 -s 6 -d 0 -p ack -e 40 -c 0 -i 25 -a 0 -x {3.0 0.0 10 ------- null}
h -t 0.2608144 -s 0 -d 6 -p tcp -e 1540 -c 0 -i 36 -a 0 -x {0.0 3.0 21 ------- null}
h -t 0.2608144 -s 0 -d 6 -p tcp -e 1540 -c 0 -i 37 -a 0 -x {0.0 3.0 22 ------- null}
r -t 0.26093968 -s 6 -d 0 -p ack -e 40 -c 0 -i 26 -a 0 -x {3.0 0.0 11 ------- null}
h -t 0.26093968 -s 0 -d 6 -p tcp -e 1540 -c 0 -i 38 -a 0 -x {0.0 3.0 23 ------- null}
h -t 0.26093968 -s 0 -d 6 -p tcp -e 1540 -c 0 -i 39 -a 0 -x {0.0 3.0 24 ------- null}
r -t 0.26106496 -s 6 -d 0 -p ack -e 40 -c 0 -i 27 -a 0 -x {3.0 0.0 12 ------- null}
h -t 0.26106496 -s 0 -d 6 -p tcp -e 1540 -c 0 -i 40 -a 0 -x {0.0 3.0 25 ------- null}
h -t 0.26106496 -s 0 -d 6 -p tcp -e 1540 -c 0 -i 41 -a 0 -x {0.0 3.0 26 ------- null}
r -t 0.26119024 -s 6 -d 0 -p ack -e 40 -c 0 -i 28 -a 0 -x {3.0 0.0 13 ------- null}
h -t 0.26119024 -s 0 -d 6 -p tcp -e 1540 -c 0 -i 42 -a 0 -x {0.0 3.0 27 ------- null}
h -t 0.26119024 -s 0 -d 6 -p tcp -e 1540 -c 0 -i 43 -a 0 -x {0.0 3.0 28 ------- null}
r -t 0.26131552 -s 6 -d 0 -p ack -e 40 -c 0 -i 29 -a 0 -x {3.0 0.0 14 ------- null}
h -t 0.26131552 -s 0 -d 6 -p tcp -e 1540 -c 0 -i 44 -a 0 -x {0.0 3.0 29 ------- null}
h -t 0.26131552 -s 0 -d 6 -p tcp -e 1540 -c 0 -i 45 -a 0 -x {0.0 3.0 30 ------- null}
+ -t 0.27043856 -s 0 -d 6 -p tcp -e 1540 -c 0 -i 30 -a 0 -x {0.0 3.0 15 ------- null}
- -t 0.27043856 -s 0 -d 6 -p tcp -e 1540 -c 0 -i 30 -a 0 -x {0.0 3.0 15 ------- null}
h -t 0.27043856 -s 0 -d 6 -p tcp -e 1540 -c 0 -i 30 -a 0 -x {0.0 3.0 -1 ------- null}
+ -t 0.27043856 -s 0 -d 6 -p tcp -e 1540 -c 0 -i 31 -a 0 -x {0.0 3.0 16 ------- null}
+ -t 0.27056384 -s 0 -d 6 -p tcp -e 1540 -c 0 -i 32 -a 0 -x {0.0 3.0 17 ------- null}
+ -t 0.27056384 -s 0 -d 6 -p tcp -e 1540 -c 0 -i 33 -a 0 -x {0.0 3.0 18 ------- null}
- -t 0.27056384 -s 0 -d 6 -p tcp -e 1540 -c 0 -i 31 -a 0 -x {0.0 3.0 16 ------- null}
h -t 0.27056384 -s 0 -d 6 -p tcp -e 1540 -c 0 -i 31 -a 0 -x {0.0 3.0 -1 ------- null}
+ -t 0.27068912 -s 0 -d 6 -p tcp -e 1540 -c 0 -i 34 -a 0 -x {0.0 3.0 19 ------- null}
+ -t 0.27068912 -s 0 -d 6 -p tcp -e 1540 -c 0 -i 35 -a 0 -x {0.0 3.0 20 ------- null}
- -t 0.27068912 -s 0 -d 6 -p tcp -e 1540 -c 0 -i 32 -a 0 -x {0.0 3.0 17 ------- null}
h -t 0.27068912 -s 0 -d 6 -p tcp -e 1540 -c 0 -i 32 -a 0 -x {0.0 3.0 -1 ------- null}
+ -t 0.2708144 -s 0 -d 6 -p tcp -e 1540 -c 0 -i 36 -a 0 -x {0.0 3.0 21 ------- null}
+ -t 0.2708144 -s 0 -d 6 -p tcp -e 1540 -c 0 -i 37 -a 0 -x {0.0 3.0 22 ------- null}
- -t 0.2708144 -s 0 -d 6 -p tcp -e 1540 -c 0 -i 33 -a 0 -x {0.0 3.0 18 ------- null}
h -t 0.2708144 -s 0 -d 6 -p tcp -e 1540 -c 0 -i 33 -a 0 -x {0.0 3.0 -1 ------- null}
+ -t 0.27093968 -s 0 -d 6 -p tcp -e 1540 -c 0 -i 38 -a 0 -x {0.0 3.0 23 ------- null}
+ -t 0.27093968 -s 0 -d 6 -p tcp -e 1540 -c 0 -i 39 -a 0 -x {0.0 3.0 24 ------- null}
- -t 0.27093968 -s 0 -d 6 -p tcp -e 1540 -c 0 -i 34 -a 0 -x {0.0 3.0 19 ------- null}
h -t 0.27093968 -s 0 -d 6 -p tcp -e 1540 -c 0 -i 34 -a 0 -x {0.0 3.0 -1 ------- null}
+ -t 0.27106496 -s 0 -d 6 -p tcp -e 1540 -c 0 -i 40 -a 0 -x {0.0 3.0 25 ------- null}
+ -t 0.27106496 -s 0 -d 6 -p tcp -e 1540 -c 0 -i 41 -a 0 -x {0.0 3.0 26 ------- null}
- -t 0.27106496 -s 0 -d 6 -p tcp -e 1540 -c 0 -i 35 -a 0 -x {0.0 3.0 20 ------- null}
h -t 0.27106496 -s 0 -d 6 -p tcp -e 1540 -c 0 -i 35 -a 0 -x {0.0 3.0 -1 ------- null}
+ -t 0.27119024 -s 0 -d 6 -p tcp -e 1540 -c 0 -i 42 -a 0 -x {0.0 3.0 27 ------- null}
+ -t 0.27119024 -s 0 -d 6 -p tcp -e 1540 -c 0 -i 43 -a 0 -x {0.0 3.0 28 ------- null}
- -t 0.27119024 -s 0 -d 6 -p tcp -e 1540 -c 0 -i 36 -a 0 -x {0.0 3.0 21 ------- null}
h -t 0.27119024 -s 0 -d 6 -p tcp -e 1540 -c 0 -i 36 -a 0 -x {0.0 3.0 -1 ------- null}
+ -t 0.27131552 -s 0 -d 6 -p tcp -e 1540 -c 0 -i 44 -a 0 -x {0.0 3.0 29 ------- null}
+ -t 0.27131552 -s 0 -d 6 -p tcp -e 1540 -c 0 -i 45 -a 0 -x {0.0 3.0 30 ------- null}
- -t 0.27131552 -s 0 -d 6 -p tcp -e 1540 -c 0 -i 37 -a 0 -x {0.0 3.0 22 ------- null}
h -t 0.27131552 -s 0 -d 6 -p tcp -e 1540 -c 0 -i 37 -a 0 -x {0.0 3.0 -1 ------- null}
- -t 0.2714408 -s 0 -d 6 -p tcp -e 1540 -c 0 -i 38 -a 0 -x {0.0 3.0 23 ------- null}
h -t 0.2714408 -s 0 -d 6 -p tcp -e 1540 -c 0 -i 38 -a 0 -x {0.0 3.0 -1 ------- null}
- -t 0.27156608 -s 0 -d 6 -p tcp -e 1540 -c 0 -i 39 -a 0 -x {0.0 3.0 24 ------- null}
h -t 0.27156608 -s 0 -d 6 -p tcp -e 1540 -c 0 -i 39 -a 0 -x {0.0 3.0 -1 ------- null}
- -t 0.27169136 -s 0 -d 6 -p tcp -e 1540 -c 0 -i 40 -a 0 -x {0.0 3.0 25 ------- null}
h -t 0.27169136 -s 0 -d 6 -p tcp -e 1540 -c 0 -i 40 -a 0 -x {0.0 3.0 -1 ------- null}
- -t 0.27181664 -s 0 -d 6 -p tcp -e 1540 -c 0 -i 41 -a 0 -x {0.0 3.0 26 ------- null}
h -t 0.27181664 -s 0 -d 6 -p tcp -e 1540 -c 0 -i 41 -a 0 -x {0.0 3.0 -1 ------- null}
- -t 0.27194192 -s 0 -d 6 -p tcp -e 1540 -c 0 -i 42 -a 0 -x {0.0 3.0 27 ------- null}
h -t 0.27194192 -s 0 -d 6 -p tcp -e 1540 -c 0 -i 42 -a 0 -x {0.0 3.0 -1 ------- null}
- -t 0.2720672 -s 0 -d 6 -p tcp -e 1540 -c 0 -i 43 -a 0 -x {0.0 3.0 28 ------- null}
h -t 0.2720672 -s 0 -d 6 -p tcp -e 1540 -c 0 -i 43 -a 0 -x {0.0 3.0 -1 ------- null}
- -t 0.27219248 -s 0 -d 6 -p tcp -e 1540 -c 0 -i 44 -a 0 -x {0.0 3.0 29 ------- null}
h -t 0.27219248 -s 0 -d 6 -p tcp -e 1540 -c 0 -i 44 -a 0 -x {0.0 3.0 -1 ------- null}
- -t 0.27231776 -s 0 -d 6 -p tcp -e 1540 -c 0 -i 45 -a 0 -x {0.0 3.0 30 ------- null}
h -t 0.27231776 -s 0 -d 6 -p tcp -e 1540 -c 0 -i 45 -a 0 -x {0.0 3.0 -1 ------- null}
r -t 0.28056788 -s 6 -d 3 -p tcp -e 1540 -c 0 -i 30 -a 0 -x {0.0 3.0 15 ------- null}
h -t 0.28056788 -s 3 -d 6 -p ack -e 40 -c 0 -i 46 -a 0 -x {3.0 0.0 15 ------- null}
r -t 0.28069316 -s 6 -d 3 -p tcp -e 1540 -c 0 -i 31 -a 0 -x {0.0 3.0 16 ------- null}
h -t 0.28069316 -s 3 -d 6 -p ack -e 40 -c 0 -i 47 -a 0 -x {3.0 0.0 16 ------- null}
r -t 0.28081844 -s 6 -d 3 -p tcp -e 1540 -c 0 -i 32 -a 0 -x {0.0 3.0 17 ------- null}
h -t 0.28081844 -s 3 -d 6 -p ack -e 40 -c 0 -i 48 -a 0 -x {3.0 0.0 17 ------- null}
r -t 0.28094372 -s 6 -d 3 -p tcp -e 1540 -c 0 -i 33 -a 0 -x {0.0 3.0 18 ------- null}
h -t 0.28094372 -s 3 -d 6 -p ack -e 40 -c 0 -i 49 -a 0 -x {3.0 0.0 18 ------- null}
r -t 0.281069 -s 6 -d 3 -p tcp -e 1540 -c 0 -i 34 -a 0 -x {0.0 3.0 19 ------- null}
h -t 0.281069 -s 3 -d 6 -p ack -e 40 -c 0 -i 50 -a 0 -x {3.0 0.0 19 ------- null}
r -t 0.28119428 -s 6 -d 3 -p tcp -e 1540 -c 0 -i 35 -a 0 -x {0.0 3.0 20 ------- null}
h -t 0.28119428 -s 3 -d 6 -p ack -e 40 -c 0 -i 51 -a 0 -x {3.0 0.0 20 ------- null}
r -t 0.28131956 -s 6 -d 3 -p tcp -e 1540 -c 0 -i 36 -a 0 -x {0.0 3.0 21 ------- null}
h -t 0.28131956 -s 3 -d 6 -p ack -e 40 -c 0 -i 52 -a 0 -x {3.0 0.0 21 ------- null}
r -t 0.28144484 -s 6 -d 3 -p tcp -e 1540 -c 0 -i 37 -a 0 -x {0.0 3.0 22 ------- null}
h -t 0.28144484 -s 3 -d 6 -p ack -e 40 -c 0 -i 53 -a 0 -x {3.0 0.0 22 ------- null}
r -t 0.28157012 -s 6 -d 3 -p tcp -e 1540 -c 0 -i 38 -a 0 -x {0.0 3.0 23 ------- null}
h -t 0.28157012 -s 3 -d 6 -p ack -e 40 -c 0 -i 54 -a 0 -x {3.0 0.0 23 ------- null}
r -t 0.2816954 -s 6 -d 3 -p tcp -e 1540 -c 0 -i 39 -a 0 -x {0.0 3.0 24 ------- null}
h -t 0.2816954 -s 3 -d 6 -p ack -e 40 -c 0 -i 55 -a 0 -x {3.0 0.0 24 ------- null}
r -t 0.28182068 -s 6 -d 3 -p tcp -e 1540 -c 0 -i 40 -a 0 -x {0.0 3.0 25 ------- null}
h -t 0.28182068 -s 3 -d 6 -p ack -e 40 -c 0 -i 56 -a 0 -x {3.0 0.0 25 ------- null}
r -t 0.28194596 -s 6 -d 3 -p tcp -e 1540 -c 0 -i 41 -a 0 -x {0.0 3.0 26 ------- null}
h -t 0.28194596 -s 3 -d 6 -p ack -e 40 -c 0 -i 57 -a 0 -x {3.0 0.0 26 ------- null}
r -t 0.28207124 -s 6 -d 3 -p tcp -e 1540 -c 0 -i 42 -a 0 -x {0.0 3.0 27 ------- null}
h -t 0.28207124 -s 3 -d 6 -p ack -e 40 -c 0 -i 58 -a 0 -x {3.0 0.0 27 ------- null}
r -t 0.28219652 -s 6 -d 3 -p tcp -e 1540 -c 0 -i 43 -a 0 -x {0.0 3.0 28 ------- null}
h -t 0.28219652 -s 3 -d 6 -p ack -e 40 -c 0 -i 59 -a 0 -x {3.0 0.0 28 ------- null}
r -t 0.2823218 -s 6 -d 3 -p tcp -e 1540 -c 0 -i 44 -a 0 -x {0.0 3.0 29 ------- null}
h -t 0.2823218 -s 3 -d 6 -p ack -e 40 -c 0 -i 60 -a 0 -x {3.0 0.0 29 ------- null}
r -t 0.28244708 -s 6 -d 3 -p tcp -e 1540 -c 0 -i 45 -a 0 -x {0.0 3.0 30 ------- null}
h -t 0.28244708 -s 3 -d 6 -p ack -e 40 -c 0 -i 61 -a 0 -x {3.0 0.0 30 ------- null}
+ -t 0.29056788 -s 3 -d 6 -p ack -e 40 -c 0 -i 46 -a 0 -x {3.0 0.0 15 ------- null}
- -t 0.29056788 -s 3 -d 6 -p ack -e 40 -c 0 -i 46 -a 0 -x {3.0 0.0 15 ------- null}
h -t 0.29056788 -s 3 -d 6 -p ack -e 40 -c 0 -i 46 -a 0 -x {3.0 0.0 -1 ------- null}
+ -t 0.29069316 -s 3 -d 6 -p ack -e 40 -c 0 -i 47 -a 0 -x {3.0 0.0 16 ------- null}
- -t 0.29069316 -s 3 -d 6 -p ack -e 40 -c 0 -i 47 -a 0 -x {3.0 0.0 16 ------- null}
h -t 0.29069316 -s 3 -d 6 -p ack -e 40 -c 0 -i 47 -a 0 -x {3.0 0.0 -1 ------- null}
+ -t 0.29081844 -s 3 -d 6 -p ack -e 40 -c 0 -i 48 -a 0 -x {3.0 0.0 17 ------- null}
- -t 0.29081844 -s 3 -d 6 -p ack -e 40 -c 0 -i 48 -a 0 -x {3.0 0.0 17 ------- null}
h -t 0.29081844 -s 3 -d 6 -p ack -e 40 -c 0 -i 48 -a 0 -x {3.0 0.0 -1 ------- null}
+ -t 0.29094372 -s 3 -d 6 -p ack -e 40 -c 0 -i 49 -a 0 -x {3.0 0.0 18 ------- null}
- -t 0.29094372 -s 3 -d 6 -p ack -e 40 -c 0 -i 49 -a 0 -x {3.0 0.0 18 ------- null}
h -t 0.29094372 -s 3 -d 6 -p ack -e 40 -c 0 -i 49 -a 0 -x {3.0 0.0 -1 ------- null}
+ -t 0.291069 -s 3 -d 6 -p ack -e 40 -c 0 -i 50 -a 0 -x {3.0 0.0 19 ------- null}
- -t 0.291069 -s 3 -d 6 -p ack -e 40 -c 0 -i 50 -a 0 -x {3.0 0.0 19 ------- null}
h -t 0.291069 -s 3 -d 6 -p ack -e 40 -c 0 -i 50 -a 0 -x {3.0 0.0 -1 ------- null}
+ -t 0.29119428 -s 3 -d 6 -p ack -e 40 -c 0 -i 51 -a 0 -x {3.0 0.0 20 ------- null}
- -t 0.29119428 -s 3 -d 6 -p ack -e 40 -c 0 -i 51 -a 0 -x {3.0 0.0 20 ------- null}
h -t 0.29119428 -s 3 -d 6 -p ack -e 40 -c 0 -i 51 -a 0 -x {3.0 0.0 -1 ------- null}
+ -t 0.29131956 -s 3 -d 6 -p ack -e 40 -c 0 -i 52 -a 0 -x {3.0 0.0 21 ------- null}
- -t 0.29131956 -s 3 -d 6 -p ack -e 40 -c 0 -i 52 -a 0 -x {3.0 0.0 21 ------- null}
h -t 0.29131956 -s 3 -d 6 -p ack -e 40 -c 0 -i 52 -a 0 -x {3.0 0.0 -1 ------- null}
+ -t 0.29144484 -s 3 -d 6 -p ack -e 40 -c 0 -i 53 -a 0 -x {3.0 0.0 22 ------- null}
- -t 0.29144484 -s 3 -d 6 -p ack -e 40 -c 0 -i 53 -a 0 -x {3.0 0.0 22 ------- null}
h -t 0.29144484 -s 3 -d 6 -p ack -e 40 -c 0 -i 53 -a 0 -x {3.0 0.0 -1 ------- null}
+ -t 0.29157012 -s 3 -d 6 -p ack -e 40 -c 0 -i 54 -a 0 -x {3.0 0.0 23 ------- null}
- -t 0.29157012 -s 3 -d 6 -p ack -e 40 -c 0 -i 54 -a 0 -x {3.0 0.0 23 ------- null}
h -t 0.29157012 -s 3 -d 6 -p ack -e 40 -c 0 -i 54 -a 0 -x {3.0 0.0 -1 ------- null}
+ -t 0.2916954 -s 3 -d 6 -p ack -e 40 -c 0 -i 55 -a 0 -x {3.0 0.0 24 ------- null}
- -t 0.2916954 -s 3 -d 6 -p ack -e 40 -c 0 -i 55 -a 0 -x {3.0 0.0 24 ------- null}
h -t 0.2916954 -s 3 -d 6 -p ack -e 40 -c 0 -i 55 -a 0 -x {3.0 0.0 -1 ------- null}
+ -t 0.29182068 -s 3 -d 6 -p ack -e 40 -c 0 -i 56 -a 0 -x {3.0 0.0 25 ------- null}
- -t 0.29182068 -s 3 -d 6 -p ack -e 40 -c 0 -i 56 -a 0 -x {3.0 0.0 25 ------- null}
h -t 0.29182068 -s 3 -d 6 -p ack -e 40 -c 0 -i 56 -a 0 -x {3.0 0.0 -1 ------- null}
+ -t 0.29194596 -s 3 -d 6 -p ack -e 40 -c 0 -i 57 -a 0 -x {3.0 0.0 26 ------- null}
- -t 0.29194596 -s 3 -d 6 -p ack -e 40 -c 0 -i 57 -a 0 -x {3.0 0.0 26 ------- null}
h -t 0.29194596 -s 3 -d 6 -p ack -e 40 -c 0 -i 57 -a 0 -x {3.0 0.0 -1 ------- null}
+ -t 0.29207124 -s 3 -d 6 -p ack -e 40 -c 0 -i 58 -a 0 -x {3.0 0.0 27 ------- null}
- -t 0.29207124 -s 3 -d 6 -p ack -e 40 -c 0 -i 58 -a 0 -x {3.0 0.0 27 ------- null}
h -t 0.29207124 -s 3 -d 6 -p ack -e 40 -c 0 -i 58 -a 0 -x {3.0 0.0 -1 ------- null}
+ -t 0.29219652 -s 3 -d 6 -p ack -e 40 -c 0 -i 59 -a 0 -x {3.0 0.0 28 ------- null}
- -t 0.29219652 -s 3 -d 6 -p ack -e 40 -c 0 -i 59 -a 0 -x {3.0 0.0 28 ------- null}
h -t 0.29219652 -s 3 -d 6 -p ack -e 40 -c 0 -i 59 -a 0 -x {3.0 0.0 -1 ------- null}
+ -t 0.2923218 -s 3 -d 6 -p ack -e 40 -c 0 -i 60 -a 0 -x {3.0 0.0 29 ------- null}
- -t 0.2923218 -s 3 -d 6 -p ack -e 40 -c 0 -i 60 -a 0 -x {3.0 0.0 29 ------- null}
h -t 0.2923218 -s 3 -d 6 -p ack -e 40 -c 0 -i 60 -a 0 -x {3.0 0.0 -1 ------- null}
+ -t 0.29244708 -s 3 -d 6 -p ack -e 40 -c 0 -i 61 -a 0 -x {3.0 0.0 30 ------- null}
- -t 0.29244708 -s 3 -d 6 -p ack -e 40 -c 0 -i 61 -a 0 -x {3.0 0.0 30 ------- null}
h -t 0.29244708 -s 3 -d 6 -p ack -e 40 -c 0 -i 61 -a 0 -x {3.0 0.0 -1 ------- null}
r -t 0.300578 -s 6 -d 0 -p ack -e 40 -c 0 -i 46 -a 0 -x {3.0 0.0 15 ------- null}
r -t 0.30070328 -s 6 -d 0 -p ack -e 40 -c 0 -i 47 -a 0 -x {3.0 0.0 16 ------- null}
r -t 0.30082856 -s 6 -d 0 -p ack -e 40 -c 0 -i 48 -a 0 -x {3.0 0.0 17 ------- null}
r -t 0.30095384 -s 6 -d 0 -p ack -e 40 -c 0 -i 49 -a 0 -x {3.0 0.0 18 ------- null}
r -t 0.30107912 -s 6 -d 0 -p ack -e 40 -c 0 -i 50 -a 0 -x {3.0 0.0 19 ------- null}
r -t 0.3012044 -s 6 -d 0 -p ack -e 40 -c 0 -i 51 -a 0 -x {3.0 0.0 20 ------- null}
r -t 0.30132968 -s 6 -d 0 -p ack -e 40 -c 0 -i 52 -a 0 -x {3.0 0.0 21 ------- null}
r -t 0.30145496 -s 6 -d 0 -p ack -e 40 -c 0 -i 53 -a 0 -x {3.0 0.0 22 ------- null}
r -t 0.30158024 -s 6 -d 0 -p ack -e 40 -c 0 -i 54 -a 0 -x {3.0 0.0 23 ------- null}
r -t 0.30170552 -s 6 -d 0 -p ack -e 40 -c 0 -i 55 -a 0 -x {3.0 0.0 24 ------- null}
r -t 0.3018308 -s 6 -d 0 -p ack -e 40 -c 0 -i 56 -a 0 -x {3.0 0.0 25 ------- null}
r -t 0.30195608 -s 6 -d 0 -p ack -e 40 -c 0 -i 57 -a 0 -x {3.0 0.0 26 ------- null}
r -t 0.30208136 -s 6 -d 0 -p ack -e 40 -c 0 -i 58 -a 0 -x {3.0 0.0 27 ------- null}
r -t 0.30220664 -s 6 -d 0 -p ack -e 40 -c 0 -i 59 -a 0 -x {3.0 0.0 28 ------- null}
r -t 0.30233192 -s 6 -d 0 -p ack -e 40 -c 0 -i 60 -a 0 -x {3.0 0.0 29 ------- null}
r -t 0.3024572 -s 6 -d 0 -p ack -e 40 -c 0 -i 61 -a 0 -x {3.0 0.0 30 ------- null}
h -t 0.5 -s 0 -d 6 -p tcp -e 1540 -c 0 -i 62 -a 0 -x {0.0 3.0 31 ------- null}
h -t 0.5 -s 0 -d 6 -p tcp -e 1540 -c 0 -i 63 -a 0 -x {0.0 3.0 32 ------- null}
h -t 0.5 -s 0 -d 6 -p tcp -e 1540 -c 0 -i 64 -a 0 -x {0.0 3.0 33 ------- null}
h -t 0.5 -s 0 -d 6 -p tcp -e 1540 -c 0 -i 65 -a 0 -x {0.0 3.0 34 ------- null}
h -t 0.5 -s 0 -d 6 -p tcp -e 1540 -c 0 -i 66 -a 0 -x {0.0 3.0 35 ------- null}
h -t 0.5 -s 0 -d 6 -p tcp -e 1540 -c 0 -i 67 -a 0 -x {0.0 3.0 36 ------- null}
h -t 0.5 -s 0 -d 6 -p tcp -e 1540 -c 0 -i 68 -a 0 -x {0.0 3.0 37 ------- null}
h -t 0.5 -s 0 -d 6 -p tcp -e 1540 -c 0 -i 69 -a 0 -x {0.0 3.0 38 ------- null}
h -t 0.5 -s 0 -d 6 -p tcp -e 1540 -c 0 -i 70 -a 0 -x {0.0 3.0 39 ------- null}
h -t 0.5 -s 0 -d 6 -p tcp -e 1540 -c 0 -i 71 -a 0 -x {0.0 3.0 40 ------- null}
h -t 0.5 -s 0 -d 6 -p tcp -e 1540 -c 0 -i 72 -a 0 -x {0.0 3.0 41 ------- null}
h -t 0.5 -s 0 -d 6 -p tcp -e 1540 -c 0 -i 73 -a 0 -x {0.0 3.0 42 ------- null}
h -t 0.5 -s 0 -d 6 -p tcp -e 1540 -c 0 -i 74 -a 0 -x {0.0 3.0 43 ------- null}
h -t 0.5 -s 0 -d 6 -p tcp -e 1540 -c 0 -i 75 -a 0 -x {0.0 3.0 44 ------- null}
h -t 0.5 -s 0 -d 6 -p tcp -e 1540 -c 0 -i 76 -a 0 -x {0.0 3.0 45 ------- null}
h -t 0.5 -s 0 -d 6 -p tcp -e 1540 -c 0 -i 77 -a 0 -x {0.0 3.0 46 ------- null}
h -t 0.5 -s 0 -d 6 -p tcp -e 1540 -c 0 -i 78 -a 0 -x {0.0 3.0 47 ------- null}
h -t 0.5 -s 0 -d 6 -p tcp -e 1540 -c 0 -i 79 -a 0 -x {0.0 3.0 48 ------- null}
h -t 0.5 -s 0 -d 6 -p tcp -e 1540 -c 0 -i 80 -a 0 -x {0.0 3.0 49 ------- null}
h -t 0.5 -s 0 -d 6 -p tcp -e 1540 -c 0 -i 81 -a 0 -x {0.0 3.0 50 ------- null}
+ -t 0.51 -s 0 -d 6 -p tcp -e 1540 -c 0 -i 62 -a 0 -x {0.0 3.0 31 ------- null}
- -t 0.51 -s 0 -d 6 -p tcp -e 1540 -c 0 -i 62 -a 0 -x {0.0 3.0 31 ------- null}
h -t 0.51 -s 0 -d 6 -p tcp -e 1540 -c 0 -i 62 -a 0 -x {0.0 3.0 -1 ------- null}
+ -t 0.51 -s 0 -d 6 -p tcp -e 1540 -c 0 -i 63 -a 0 -x {0.0 3.0 32 ------- null}
+ -t 0.51 -s 0 -d 6 -p tcp -e 1540 -c 0 -i 64 -a 0 -x {0.0 3.0 33 ------- null}
+ -t 0.51 -s 0 -d 6 -p tcp -e 1540 -c 0 -i 65 -a 0 -x {0.0 3.0 34 ------- null}
+ -t 0.51 -s 0 -d 6 -p tcp -e 1540 -c 0 -i 66 -a 0 -x {0.0 3.0 35 ------- null}
+ -t 0.51 -s 0 -d 6 -p tcp -e 1540 -c 0 -i 67 -a 0 -x {0.0 3.0 36 ------- null}
+ -t 0.51 -s 0 -d 6 -p tcp -e 1540 -c 0 -i 68 -a 0 -x {0.0 3.0 37 ------- null}
+ -t 0.51 -s 0 -d 6 -p tcp -e 1540 -c 0 -i 69 -a 0 -x {0.0 3.0 38 ------- null}
+ -t 0.51 -s 0 -d 6 -p tcp -e 1540 -c 0 -i 70 -a 0 -x {0.0 3.0 39 ------- null}
+ -t 0.51 -s 0 -d 6 -p tcp -e 1540 -c 0 -i 71 -a 0 -x {0.0 3.0 40 ------- null}
+ -t 0.51 -s 0 -d 6 -p tcp -e 1540 -c 0 -i 72 -a 0 -x {0.0 3.0 41 ------- null}
+ -t 0.51 -s 0 -d 6 -p tcp -e 1540 -c 0 -i 73 -a 0 -x {0.0 3.0 42 ------- null}
+ -t 0.51 -s 0 -d 6 -p tcp -e 1540 -c 0 -i 74 -a 0 -x {0.0 3.0 43 ------- null}
+ -t 0.51 -s 0 -d 6 -p tcp -e 1540 -c 0 -i 75 -a 0 -x {0.0 3.0 44 ------- null}
+ -t 0.51 -s 0 -d 6 -p tcp -e 1540 -c 0 -i 76 -a 0 -x {0.0 3.0 45 ------- null}
+ -t 0.51 -s 0 -d 6 -p tcp -e 1540 -c 0 -i 77 -a 0 -x {0.0 3.0 46 ------- null}
+ -t 0.51 -s 0 -d 6 -p tcp -e 1540 -c 0 -i 78 -a 0 -x {0.0 3.0 47 ------- null}
+ -t 0.51 -s 0 -d 6 -p tcp -e 1540 -c 0 -i 79 -a 0 -x {0.0 3.0 48 ------- null}
+ -t 0.51 -s 0 -d 6 -p tcp -e 1540 -c 0 -i 80 -a 0 -x {0.0 3.0 49 ------- null}